V -t * -v 1.0a5 -a 0
A -t * -n 1 -p 0 -o 0x7fffffff -c 30 -a 1
A -t * -h 1 -m 1073741823 -s 0
c -t * -i 1 -n Blue
c -t * -i 2 -n Red
c -t * -i 3 -n Yellow
n -t * -a 35 -s 35 -S UP -v circle -c black -i black
n -t * -a 17 -s 17 -S UP -v circle -c black -i black
n -t * -a 0 -s 0 -S UP -v circle -c black -i black
n -t * -a 36 -s 36 -S UP -v circle -c black -i black
n -t * -a 18 -s 18 -S UP -v circle -c black -i black
n -t * -a 1 -s 1 -S UP -v circle -c black -i black
n -t * -a 20 -s 20 -S UP -v circle -c black -i black
n -t * -a 19 -s 19 -S UP -v circle -c black -i black
n -t * -a 2 -s 2 -S UP -v circle -c black -i black
n -t * -a 21 -s 21 -S UP -v circle -c black -i black
n -t * -a 3 -s 3 -S UP -v circle -c black -i black
n -t * -a 22 -s 22 -S UP -v circle -c black -i black
n -t * -a 4 -s 4 -S UP -v circle -c black -i black
n -t * -a 23 -s 23 -S UP -v circle -c black -i black
n -t * -a 5 -s 5 -S UP -v circle -c black -i black
n -t * -a 24 -s 24 -S UP -v circle -c black -i black
n -t * -a 6 -s 6 -S UP -v circle -c black -i black
n -t * -a 25 -s 25 -S UP -v circle -c black -i black
n -t * -a 7 -s 7 -S UP -v circle -c black -i black
n -t * -a 26 -s 26 -S UP -v circle -c black -i black
n -t * -a 8 -s 8 -S UP -v circle -c black -i black
n -t * -a 27 -s 27 -S UP -v circle -c black -i black
n -t * -a 9 -s 9 -S UP -v circle -c black -i black
n -t * -a 10 -s 10 -S UP -v circle -c black -i black
n -t * -a 28 -s 28 -S UP -v circle -c black -i black
n -t * -a 11 -s 11 -S UP -v circle -c black -i black
n -t * -a 30 -s 30 -S UP -v circle -c black -i black
n -t * -a 29 -s 29 -S UP -v circle -c black -i black
n -t * -a 12 -s 12 -S UP -v circle -c black -i black
n -t * -a 31 -s 31 -S UP -v circle -c black -i black
n -t * -a 13 -s 13 -S UP -v circle -c black -i black
n -t * -a 32 -s 32 -S UP -v circle -c black -i black
n -t * -a 14 -s 14 -S UP -v circle -c black -i black
n -t * -a 33 -s 33 -S UP -v circle -c black -i black
n -t * -a 15 -s 15 -S UP -v circle -c black -i black
n -t * -a 34 -s 34 -S UP -v circle -c black -i black
n -t * -a 16 -s 16 -S UP -v circle -c black -i black
l -t * -s 0 -d 16 -S UP -r 100000000 -D 2.5000000000000001e-05 -c black
l -t * -s 1 -d 16 -S UP -r 100000000 -D 2.5000000000000001e-05 -c black
l -t * -s 2 -d 17 -S UP -r 100000000 -D 2.5000000000000001e-05 -c black
l -t * -s 3 -d 17 -S UP -r 100000000 -D 2.5000000000000001e-05 -c black
l -t * -s 4 -d 18 -S UP -r 100000000 -D 2.5000000000000001e-05 -c black
l -t * -s 5 -d 18 -S UP -r 100000000 -D 2.5000000000000001e-05 -c black
l -t * -s 6 -d 19 -S UP -r 100000000 -D 2.5000000000000001e-05 -c black
l -t * -s 7 -d 19 -S UP -r 100000000 -D 2.5000000000000001e-05 -c black
l -t * -s 8 -d 20 -S UP -r 100000000 -D 2.5000000000000001e-05 -c black
l -t * -s 9 -d 20 -S UP -r 100000000 -D 2.5000000000000001e-05 -c black
l -t * -s 10 -d 21 -S UP -r 100000000 -D 2.5000000000000001e-05 -c black
l -t * -s 11 -d 21 -S UP -r 100000000 -D 2.5000000000000001e-05 -c black
l -t * -s 12 -d 22 -S UP -r 100000000 -D 2.5000000000000001e-05 -c black
l -t * -s 13 -d 22 -S UP -r 100000000 -D 2.5000000000000001e-05 -c black
l -t * -s 14 -d 23 -S UP -r 100000000 -D 2.5000000000000001e-05 -c black
l -t * -s 15 -d 23 -S UP -r 100000000 -D 2.5000000000000001e-05 -c black
l -t * -s 16 -d 24 -S UP -r 100000000 -D 2.5000000000000001e-05 -c black
l -t * -s 16 -d 25 -S UP -r 100000000 -D 2.5000000000000001e-05 -c black
l -t * -s 17 -d 24 -S UP -r 100000000 -D 2.5000000000000001e-05 -c black
l -t * -s 17 -d 25 -S UP -r 100000000 -D 2.5000000000000001e-05 -c black
l -t * -s 18 -d 26 -S UP -r 100000000 -D 2.5000000000000001e-05 -c black
l -t * -s 18 -d 27 -S UP -r 100000000 -D 2.5000000000000001e-05 -c black
l -t * -s 19 -d 26 -S UP -r 100000000 -D 2.5000000000000001e-05 -c black
l -t * -s 19 -d 27 -S UP -r 100000000 -D 2.5000000000000001e-05 -c black
l -t * -s 20 -d 28 -S UP -r 100000000 -D 2.5000000000000001e-05 -c black
l -t * -s 20 -d 29 -S UP -r 100000000 -D 2.5000000000000001e-05 -c black
l -t * -s 21 -d 28 -S UP -r 100000000 -D 2.5000000000000001e-05 -c black
l -t * -s 21 -d 29 -S UP -r 100000000 -D 2.5000000000000001e-05 -c black
l -t * -s 22 -d 30 -S UP -r 100000000 -D 2.5000000000000001e-05 -c black
l -t * -s 22 -d 31 -S UP -r 100000000 -D 2.5000000000000001e-05 -c black
l -t * -s 23 -d 30 -S UP -r 100000000 -D 2.5000000000000001e-05 -c black
l -t * -s 23 -d 31 -S UP -r 100000000 -D 2.5000000000000001e-05 -c black
l -t * -s 24 -d 32 -S UP -r 100000000 -D 2.5000000000000001e-05 -c black
l -t * -s 24 -d 33 -S UP -r 100000000 -D 2.5000000000000001e-05 -c black
l -t * -s 25 -d 34 -S UP -r 100000000 -D 2.5000000000000001e-05 -c black
l -t * -s 25 -d 35 -S UP -r 100000000 -D 2.5000000000000001e-05 -c black
l -t * -s 26 -d 32 -S UP -r 100000000 -D 2.5000000000000001e-05 -c black
l -t * -s 26 -d 33 -S UP -r 100000000 -D 2.5000000000000001e-05 -c black
l -t * -s 27 -d 34 -S UP -r 100000000 -D 2.5000000000000001e-05 -c black
l -t * -s 27 -d 35 -S UP -r 100000000 -D 2.5000000000000001e-05 -c black
l -t * -s 28 -d 32 -S UP -r 100000000 -D 2.5000000000000001e-05 -c black
l -t * -s 28 -d 33 -S UP -r 100000000 -D 2.5000000000000001e-05 -c black
l -t * -s 29 -d 34 -S UP -r 100000000 -D 2.5000000000000001e-05 -c black
l -t * -s 29 -d 35 -S UP -r 100000000 -D 2.5000000000000001e-05 -c black
l -t * -s 30 -d 32 -S UP -r 100000000 -D 2.5000000000000001e-05 -c black
l -t * -s 30 -d 33 -S UP -r 100000000 -D 2.5000000000000001e-05 -c black
l -t * -s 31 -d 34 -S UP -r 100000000 -D 2.5000000000000001e-05 -c black
l -t * -s 31 -d 35 -S UP -r 100000000 -D 2.5000000000000001e-05 -c black
+ -t 0 -s 0 -d 16 -p ping -e 64 -c 0 -i 2 -a 0 -x {0.37 1.36 -1 ------- null}
- -t 0 -s 0 -d 16 -p ping -e 64 -c 0 -i 2 -a 0 -x {0.37 1.36 -1 ------- null}
h -t 0 -s 0 -d 16 -p ping -e 64 -c 0 -i 2 -a 0 -x {0.37 1.36 -1 ------- null}
+ -t 0 -s 0 -d 16 -p ping -e 64 -c 0 -i 3 -a 0 -x {0.38 2.36 -1 ------- null}
+ -t 0 -s 0 -d 16 -p ping -e 64 -c 0 -i 4 -a 0 -x {0.39 3.36 -1 ------- null}
+ -t 0 -s 0 -d 16 -p ping -e 64 -c 0 -i 5 -a 0 -x {0.40 4.36 -1 ------- null}
+ -t 0 -s 0 -d 16 -p ping -e 64 -c 0 -i 6 -a 0 -x {0.41 5.36 -1 ------- null}
+ -t 0 -s 0 -d 16 -p ping -e 64 -c 0 -i 7 -a 0 -x {0.42 6.36 -1 ------- null}
+ -t 0 -s 0 -d 16 -p ping -e 64 -c 0 -i 8 -a 0 -x {0.43 7.36 -1 ------- null}
+ -t 0 -s 0 -d 16 -p ping -e 64 -c 0 -i 9 -a 0 -x {0.44 8.36 -1 ------- null}
+ -t 0 -s 0 -d 16 -p ping -e 64 -c 0 -i 10 -a 0 -x {0.45 9.36 -1 ------- null}
+ -t 0 -s 0 -d 16 -p ping -e 64 -c 0 -i 11 -a 0 -x {0.46 10.36 -1 ------- null}
+ -t 0 -s 0 -d 16 -p ping -e 64 -c 0 -i 12 -a 0 -x {0.47 11.36 -1 ------- null}
+ -t 0 -s 0 -d 16 -p ping -e 64 -c 0 -i 13 -a 0 -x {0.48 12.36 -1 ------- null}
+ -t 0 -s 0 -d 16 -p ping -e 64 -c 0 -i 14 -a 0 -x {0.49 13.36 -1 ------- null}
+ -t 0 -s 0 -d 16 -p ping -e 64 -c 0 -i 15 -a 0 -x {0.50 14.36 -1 ------- null}
+ -t 0 -s 0 -d 16 -p ping -e 64 -c 0 -i 16 -a 0 -x {0.51 15.36 -1 ------- null}
+ -t 0 -s 0 -d 16 -p ping -e 64 -c 0 -i 17 -a 0 -x {0.52 16.36 -1 ------- null}
+ -t 0 -s 0 -d 16 -p ping -e 64 -c 0 -i 18 -a 0 -x {0.53 17.36 -1 ------- null}
+ -t 0 -s 0 -d 16 -p ping -e 64 -c 0 -i 19 -a 0 -x {0.54 18.36 -1 ------- null}
+ -t 0 -s 0 -d 16 -p ping -e 64 -c 0 -i 20 -a 0 -x {0.55 19.36 -1 ------- null}
+ -t 0 -s 0 -d 16 -p ping -e 64 -c 0 -i 21 -a 0 -x {0.56 20.36 -1 ------- null}
+ -t 0 -s 0 -d 16 -p ping -e 64 -c 0 -i 22 -a 0 -x {0.57 21.36 -1 ------- null}
+ -t 0 -s 0 -d 16 -p ping -e 64 -c 0 -i 23 -a 0 -x {0.58 22.36 -1 ------- null}
+ -t 0 -s 0 -d 16 -p ping -e 64 -c 0 -i 24 -a 0 -x {0.59 23.36 -1 ------- null}
+ -t 0 -s 0 -d 16 -p ping -e 64 -c 0 -i 25 -a 0 -x {0.60 24.36 -1 ------- null}
+ -t 0 -s 0 -d 16 -p ping -e 64 -c 0 -i 26 -a 0 -x {0.61 25.36 -1 ------- null}
+ -t 0 -s 0 -d 16 -p ping -e 64 -c 0 -i 27 -a 0 -x {0.62 26.36 -1 ------- null}
+ -t 0 -s 0 -d 16 -p ping -e 64 -c 0 -i 28 -a 0 -x {0.63 27.36 -1 ------- null}
+ -t 0 -s 0 -d 16 -p ping -e 64 -c 0 -i 29 -a 0 -x {0.64 28.36 -1 ------- null}
+ -t 0 -s 0 -d 16 -p ping -e 64 -c 0 -i 30 -a 0 -x {0.65 29.36 -1 ------- null}
+ -t 0 -s 0 -d 16 -p ping -e 64 -c 0 -i 31 -a 0 -x {0.66 30.36 -1 ------- null}
+ -t 0 -s 0 -d 16 -p ping -e 64 -c 0 -i 32 -a 0 -x {0.67 31.36 -1 ------- null}
+ -t 0 -s 0 -d 16 -p ping -e 64 -c 0 -i 33 -a 0 -x {0.68 32.36 -1 ------- null}
+ -t 0 -s 0 -d 16 -p ping -e 64 -c 0 -i 34 -a 0 -x {0.69 33.36 -1 ------- null}
+ -t 0 -s 0 -d 16 -p ping -e 64 -c 0 -i 35 -a 0 -x {0.70 34.36 -1 ------- null}
+ -t 0 -s 0 -d 16 -p ping -e 64 -c 0 -i 36 -a 0 -x {0.71 35.36 -1 ------- null}
- -t 5.12e-06 -s 0 -d 16 -p ping -e 64 -c 0 -i 3 -a 0 -x {0.38 2.36 -1 ------- null}
h -t 5.12e-06 -s 0 -d 16 -p ping -e 64 -c 0 -i 3 -a 0 -x {0.38 2.36 -1 ------- null}
- -t 1.024e-05 -s 0 -d 16 -p ping -e 64 -c 0 -i 4 -a 0 -x {0.39 3.36 -1 ------- null}
h -t 1.024e-05 -s 0 -d 16 -p ping -e 64 -c 0 -i 4 -a 0 -x {0.39 3.36 -1 ------- null}
- -t 1.536e-05 -s 0 -d 16 -p ping -e 64 -c 0 -i 5 -a 0 -x {0.40 4.36 -1 ------- null}
h -t 1.536e-05 -s 0 -d 16 -p ping -e 64 -c 0 -i 5 -a 0 -x {0.40 4.36 -1 ------- null}
- -t 2.048e-05 -s 0 -d 16 -p ping -e 64 -c 0 -i 6 -a 0 -x {0.41 5.36 -1 ------- null}
h -t 2.048e-05 -s 0 -d 16 -p ping -e 64 -c 0 -i 6 -a 0 -x {0.41 5.36 -1 ------- null}
- -t 2.56e-05 -s 0 -d 16 -p ping -e 64 -c 0 -i 7 -a 0 -x {0.42 6.36 -1 ------- null}
h -t 2.56e-05 -s 0 -d 16 -p ping -e 64 -c 0 -i 7 -a 0 -x {0.42 6.36 -1 ------- null}
r -t 3.012e-05 -s 0 -d 16 -p ping -e 64 -c 0 -i 2 -a 0 -x {0.37 1.36 -1 ------- null}
+ -t 3.012e-05 -s 16 -d 1 -p ping -e 64 -c 0 -i 2 -a 0 -x {0.37 1.36 -1 ------- null}
- -t 3.012e-05 -s 16 -d 1 -p ping -e 64 -c 0 -i 2 -a 0 -x {0.37 1.36 -1 ------- null}
h -t 3.012e-05 -s 16 -d 1 -p ping -e 64 -c 0 -i 2 -a 0 -x {0.37 1.36 -1 ------- null}
- -t 3.072e-05 -s 0 -d 16 -p ping -e 64 -c 0 -i 8 -a 0 -x {0.43 7.36 -1 ------- null}
h -t 3.072e-05 -s 0 -d 16 -p ping -e 64 -c 0 -i 8 -a 0 -x {0.43 7.36 -1 ------- null}
r -t 3.524e-05 -s 0 -d 16 -p ping -e 64 -c 0 -i 3 -a 0 -x {0.38 2.36 -1 ------- null}
+ -t 3.524e-05 -s 16 -d 24 -p ping -e 64 -c 0 -i 3 -a 0 -x {0.38 2.36 -1 ------- null}
- -t 3.524e-05 -s 16 -d 24 -p ping -e 64 -c 0 -i 3 -a 0 -x {0.38 2.36 -1 ------- null}
h -t 3.524e-05 -s 16 -d 24 -p ping -e 64 -c 0 -i 3 -a 0 -x {0.38 2.36 -1 ------- null}
- -t 3.584e-05 -s 0 -d 16 -p ping -e 64 -c 0 -i 9 -a 0 -x {0.44 8.36 -1 ------- null}
h -t 3.584e-05 -s 0 -d 16 -p ping -e 64 -c 0 -i 9 -a 0 -x {0.44 8.36 -1 ------- null}
r -t 4.036e-05 -s 0 -d 16 -p ping -e 64 -c 0 -i 4 -a 0 -x {0.39 3.36 -1 ------- null}
+ -t 4.036e-05 -s 16 -d 24 -p ping -e 64 -c 0 -i 4 -a 0 -x {0.39 3.36 -1 ------- null}
- -t 4.036e-05 -s 16 -d 24 -p ping -e 64 -c 0 -i 4 -a 0 -x {0.39 3.36 -1 ------- null}
h -t 4.036e-05 -s 16 -d 24 -p ping -e 64 -c 0 -i 4 -a 0 -x {0.39 3.36 -1 ------- null}
- -t 4.096e-05 -s 0 -d 16 -p ping -e 64 -c 0 -i 10 -a 0 -x {0.45 9.36 -1 ------- null}
h -t 4.096e-05 -s 0 -d 16 -p ping -e 64 -c 0 -i 10 -a 0 -x {0.45 9.36 -1 ------- null}
r -t 4.548e-05 -s 0 -d 16 -p ping -e 64 -c 0 -i 5 -a 0 -x {0.40 4.36 -1 ------- null}
+ -t 4.548e-05 -s 16 -d 24 -p ping -e 64 -c 0 -i 5 -a 0 -x {0.40 4.36 -1 ------- null}
- -t 4.548e-05 -s 16 -d 24 -p ping -e 64 -c 0 -i 5 -a 0 -x {0.40 4.36 -1 ------- null}
h -t 4.548e-05 -s 16 -d 24 -p ping -e 64 -c 0 -i 5 -a 0 -x {0.40 4.36 -1 ------- null}
- -t 4.608e-05 -s 0 -d 16 -p ping -e 64 -c 0 -i 11 -a 0 -x {0.46 10.36 -1 ------- null}
h -t 4.608e-05 -s 0 -d 16 -p ping -e 64 -c 0 -i 11 -a 0 -x {0.46 10.36 -1 ------- null}
r -t 5.06e-05 -s 0 -d 16 -p ping -e 64 -c 0 -i 6 -a 0 -x {0.41 5.36 -1 ------- null}
+ -t 5.06e-05 -s 16 -d 24 -p ping -e 64 -c 0 -i 6 -a 0 -x {0.41 5.36 -1 ------- null}
- -t 5.06e-05 -s 16 -d 24 -p ping -e 64 -c 0 -i 6 -a 0 -x {0.41 5.36 -1 ------- null}
h -t 5.06e-05 -s 16 -d 24 -p ping -e 64 -c 0 -i 6 -a 0 -x {0.41 5.36 -1 ------- null}
- -t 5.12e-05 -s 0 -d 16 -p ping -e 64 -c 0 -i 12 -a 0 -x {0.47 11.36 -1 ------- null}
h -t 5.12e-05 -s 0 -d 16 -p ping -e 64 -c 0 -i 12 -a 0 -x {0.47 11.36 -1 ------- null}
r -t 5.572e-05 -s 0 -d 16 -p ping -e 64 -c 0 -i 7 -a 0 -x {0.42 6.36 -1 ------- null}
+ -t 5.572e-05 -s 16 -d 24 -p ping -e 64 -c 0 -i 7 -a 0 -x {0.42 6.36 -1 ------- null}
- -t 5.572e-05 -s 16 -d 24 -p ping -e 64 -c 0 -i 7 -a 0 -x {0.42 6.36 -1 ------- null}
h -t 5.572e-05 -s 16 -d 24 -p ping -e 64 -c 0 -i 7 -a 0 -x {0.42 6.36 -1 ------- null}
- -t 5.632e-05 -s 0 -d 16 -p ping -e 64 -c 0 -i 13 -a 0 -x {0.48 12.36 -1 ------- null}
h -t 5.632e-05 -s 0 -d 16 -p ping -e 64 -c 0 -i 13 -a 0 -x {0.48 12.36 -1 ------- null}
r -t 6.024e-05 -s 16 -d 1 -p ping -e 64 -c 0 -i 2 -a 0 -x {0.37 1.36 -1 ------- null}
+ -t 6.024e-05 -s 1 -d 16 -p ping -e 64 -c 0 -i 37 -a 0 -x {1.36 0.37 -1 ------- null}
- -t 6.024e-05 -s 1 -d 16 -p ping -e 64 -c 0 -i 37 -a 0 -x {1.36 0.37 -1 ------- null}
h -t 6.024e-05 -s 1 -d 16 -p ping -e 64 -c 0 -i 37 -a 0 -x {1.36 0.37 -1 ------- null}
r -t 6.084e-05 -s 0 -d 16 -p ping -e 64 -c 0 -i 8 -a 0 -x {0.43 7.36 -1 ------- null}
+ -t 6.084e-05 -s 16 -d 24 -p ping -e 64 -c 0 -i 8 -a 0 -x {0.43 7.36 -1 ------- null}
- -t 6.084e-05 -s 16 -d 24 -p ping -e 64 -c 0 -i 8 -a 0 -x {0.43 7.36 -1 ------- null}
h -t 6.084e-05 -s 16 -d 24 -p ping -e 64 -c 0 -i 8 -a 0 -x {0.43 7.36 -1 ------- null}
- -t 6.144e-05 -s 0 -d 16 -p ping -e 64 -c 0 -i 14 -a 0 -x {0.49 13.36 -1 ------- null}
h -t 6.144e-05 -s 0 -d 16 -p ping -e 64 -c 0 -i 14 -a 0 -x {0.49 13.36 -1 ------- null}
r -t 6.536e-05 -s 16 -d 24 -p ping -e 64 -c 0 -i 3 -a 0 -x {0.38 2.36 -1 ------- null}
+ -t 6.536e-05 -s 24 -d 17 -p ping -e 64 -c 0 -i 3 -a 0 -x {0.38 2.36 -1 ------- null}
- -t 6.536e-05 -s 24 -d 17 -p ping -e 64 -c 0 -i 3 -a 0 -x {0.38 2.36 -1 ------- null}
h -t 6.536e-05 -s 24 -d 17 -p ping -e 64 -c 0 -i 3 -a 0 -x {0.38 2.36 -1 ------- null}
r -t 6.596e-05 -s 0 -d 16 -p ping -e 64 -c 0 -i 9 -a 0 -x {0.44 8.36 -1 ------- null}
+ -t 6.596e-05 -s 16 -d 24 -p ping -e 64 -c 0 -i 9 -a 0 -x {0.44 8.36 -1 ------- null}
- -t 6.596e-05 -s 16 -d 24 -p ping -e 64 -c 0 -i 9 -a 0 -x {0.44 8.36 -1 ------- null}
h -t 6.596e-05 -s 16 -d 24 -p ping -e 64 -c 0 -i 9 -a 0 -x {0.44 8.36 -1 ------- null}
- -t 6.656e-05 -s 0 -d 16 -p ping -e 64 -c 0 -i 15 -a 0 -x {0.50 14.36 -1 ------- null}
h -t 6.656e-05 -s 0 -d 16 -p ping -e 64 -c 0 -i 15 -a 0 -x {0.50 14.36 -1 ------- null}
r -t 7.048e-05 -s 16 -d 24 -p ping -e 64 -c 0 -i 4 -a 0 -x {0.39 3.36 -1 ------- null}
+ -t 7.048e-05 -s 24 -d 17 -p ping -e 64 -c 0 -i 4 -a 0 -x {0.39 3.36 -1 ------- null}
- -t 7.048e-05 -s 24 -d 17 -p ping -e 64 -c 0 -i 4 -a 0 -x {0.39 3.36 -1 ------- null}
h -t 7.048e-05 -s 24 -d 17 -p ping -e 64 -c 0 -i 4 -a 0 -x {0.39 3.36 -1 ------- null}
r -t 7.108e-05 -s 0 -d 16 -p ping -e 64 -c 0 -i 10 -a 0 -x {0.45 9.36 -1 ------- null}
+ -t 7.108e-05 -s 16 -d 24 -p ping -e 64 -c 0 -i 10 -a 0 -x {0.45 9.36 -1 ------- null}
- -t 7.108e-05 -s 16 -d 24 -p ping -e 64 -c 0 -i 10 -a 0 -x {0.45 9.36 -1 ------- null}
h -t 7.108e-05 -s 16 -d 24 -p ping -e 64 -c 0 -i 10 -a 0 -x {0.45 9.36 -1 ------- null}
- -t 7.168e-05 -s 0 -d 16 -p ping -e 64 -c 0 -i 16 -a 0 -x {0.51 15.36 -1 ------- null}
h -t 7.168e-05 -s 0 -d 16 -p ping -e 64 -c 0 -i 16 -a 0 -x {0.51 15.36 -1 ------- null}
r -t 7.56e-05 -s 16 -d 24 -p ping -e 64 -c 0 -i 5 -a 0 -x {0.40 4.36 -1 ------- null}
+ -t 7.56e-05 -s 24 -d 32 -p ping -e 64 -c 0 -i 5 -a 0 -x {0.40 4.36 -1 ------- null}
- -t 7.56e-05 -s 24 -d 32 -p ping -e 64 -c 0 -i 5 -a 0 -x {0.40 4.36 -1 ------- null}
h -t 7.56e-05 -s 24 -d 32 -p ping -e 64 -c 0 -i 5 -a 0 -x {0.40 4.36 -1 ------- null}
r -t 7.62e-05 -s 0 -d 16 -p ping -e 64 -c 0 -i 11 -a 0 -x {0.46 10.36 -1 ------- null}
+ -t 7.62e-05 -s 16 -d 24 -p ping -e 64 -c 0 -i 11 -a 0 -x {0.46 10.36 -1 ------- null}
- -t 7.62e-05 -s 16 -d 24 -p ping -e 64 -c 0 -i 11 -a 0 -x {0.46 10.36 -1 ------- null}
h -t 7.62e-05 -s 16 -d 24 -p ping -e 64 -c 0 -i 11 -a 0 -x {0.46 10.36 -1 ------- null}
- -t 7.68e-05 -s 0 -d 16 -p ping -e 64 -c 0 -i 17 -a 0 -x {0.52 16.36 -1 ------- null}
h -t 7.68e-05 -s 0 -d 16 -p ping -e 64 -c 0 -i 17 -a 0 -x {0.52 16.36 -1 ------- null}
r -t 8.072e-05 -s 16 -d 24 -p ping -e 64 -c 0 -i 6 -a 0 -x {0.41 5.36 -1 ------- null}
+ -t 8.072e-05 -s 24 -d 32 -p ping -e 64 -c 0 -i 6 -a 0 -x {0.41 5.36 -1 ------- null}
- -t 8.072e-05 -s 24 -d 32 -p ping -e 64 -c 0 -i 6 -a 0 -x {0.41 5.36 -1 ------- null}
h -t 8.072e-05 -s 24 -d 32 -p ping -e 64 -c 0 -i 6 -a 0 -x {0.41 5.36 -1 ------- null}
r -t 8.132e-05 -s 0 -d 16 -p ping -e 64 -c 0 -i 12 -a 0 -x {0.47 11.36 -1 ------- null}
+ -t 8.132e-05 -s 16 -d 24 -p ping -e 64 -c 0 -i 12 -a 0 -x {0.47 11.36 -1 ------- null}
- -t 8.132e-05 -s 16 -d 24 -p ping -e 64 -c 0 -i 12 -a 0 -x {0.47 11.36 -1 ------- null}
h -t 8.132e-05 -s 16 -d 24 -p ping -e 64 -c 0 -i 12 -a 0 -x {0.47 11.36 -1 ------- null}
- -t 8.192e-05 -s 0 -d 16 -p ping -e 64 -c 0 -i 18 -a 0 -x {0.53 17.36 -1 ------- null}
h -t 8.192e-05 -s 0 -d 16 -p ping -e 64 -c 0 -i 18 -a 0 -x {0.53 17.36 -1 ------- null}
r -t 8.584e-05 -s 16 -d 24 -p ping -e 64 -c 0 -i 7 -a 0 -x {0.42 6.36 -1 ------- null}
+ -t 8.584e-05 -s 24 -d 32 -p ping -e 64 -c 0 -i 7 -a 0 -x {0.42 6.36 -1 ------- null}
- -t 8.584e-05 -s 24 -d 32 -p ping -e 64 -c 0 -i 7 -a 0 -x {0.42 6.36 -1 ------- null}
h -t 8.584e-05 -s 24 -d 32 -p ping -e 64 -c 0 -i 7 -a 0 -x {0.42 6.36 -1 ------- null}
r -t 8.644e-05 -s 0 -d 16 -p ping -e 64 -c 0 -i 13 -a 0 -x {0.48 12.36 -1 ------- null}
+ -t 8.644e-05 -s 16 -d 24 -p ping -e 64 -c 0 -i 13 -a 0 -x {0.48 12.36 -1 ------- null}
- -t 8.644e-05 -s 16 -d 24 -p ping -e 64 -c 0 -i 13 -a 0 -x {0.48 12.36 -1 ------- null}
h -t 8.644e-05 -s 16 -d 24 -p ping -e 64 -c 0 -i 13 -a 0 -x {0.48 12.36 -1 ------- null}
- -t 8.704e-05 -s 0 -d 16 -p ping -e 64 -c 0 -i 19 -a 0 -x {0.54 18.36 -1 ------- null}
h -t 8.704e-05 -s 0 -d 16 -p ping -e 64 -c 0 -i 19 -a 0 -x {0.54 18.36 -1 ------- null}
r -t 9.036e-05 -s 1 -d 16 -p ping -e 64 -c 0 -i 37 -a 0 -x {1.36 0.37 -1 ------- null}
+ -t 9.036e-05 -s 16 -d 0 -p ping -e 64 -c 0 -i 37 -a 0 -x {1.36 0.37 -1 ------- null}
- -t 9.036e-05 -s 16 -d 0 -p ping -e 64 -c 0 -i 37 -a 0 -x {1.36 0.37 -1 ------- null}
h -t 9.036e-05 -s 16 -d 0 -p ping -e 64 -c 0 -i 37 -a 0 -x {1.36 0.37 -1 ------- null}
r -t 9.096e-05 -s 16 -d 24 -p ping -e 64 -c 0 -i 8 -a 0 -x {0.43 7.36 -1 ------- null}
+ -t 9.096e-05 -s 24 -d 32 -p ping -e 64 -c 0 -i 8 -a 0 -x {0.43 7.36 -1 ------- null}
- -t 9.096e-05 -s 24 -d 32 -p ping -e 64 -c 0 -i 8 -a 0 -x {0.43 7.36 -1 ------- null}
h -t 9.096e-05 -s 24 -d 32 -p ping -e 64 -c 0 -i 8 -a 0 -x {0.43 7.36 -1 ------- null}
r -t 9.156e-05 -s 0 -d 16 -p ping -e 64 -c 0 -i 14 -a 0 -x {0.49 13.36 -1 ------- null}
+ -t 9.156e-05 -s 16 -d 24 -p ping -e 64 -c 0 -i 14 -a 0 -x {0.49 13.36 -1 ------- null}
- -t 9.156e-05 -s 16 -d 24 -p ping -e 64 -c 0 -i 14 -a 0 -x {0.49 13.36 -1 ------- null}
h -t 9.156e-05 -s 16 -d 24 -p ping -e 64 -c 0 -i 14 -a 0 -x {0.49 13.36 -1 ------- null}
- -t 9.216e-05 -s 0 -d 16 -p ping -e 64 -c 0 -i 20 -a 0 -x {0.55 19.36 -1 ------- null}
h -t 9.216e-05 -s 0 -d 16 -p ping -e 64 -c 0 -i 20 -a 0 -x {0.55 19.36 -1 ------- null}
r -t 9.548e-05 -s 24 -d 17 -p ping -e 64 -c 0 -i 3 -a 0 -x {0.38 2.36 -1 ------- null}
+ -t 9.548e-05 -s 17 -d 2 -p ping -e 64 -c 0 -i 3 -a 0 -x {0.38 2.36 -1 ------- null}
- -t 9.548e-05 -s 17 -d 2 -p ping -e 64 -c 0 -i 3 -a 0 -x {0.38 2.36 -1 ------- null}
h -t 9.548e-05 -s 17 -d 2 -p ping -e 64 -c 0 -i 3 -a 0 -x {0.38 2.36 -1 ------- null}
r -t 9.608e-05 -s 16 -d 24 -p ping -e 64 -c 0 -i 9 -a 0 -x {0.44 8.36 -1 ------- null}
+ -t 9.608e-05 -s 24 -d 32 -p ping -e 64 -c 0 -i 9 -a 0 -x {0.44 8.36 -1 ------- null}
- -t 9.608e-05 -s 24 -d 32 -p ping -e 64 -c 0 -i 9 -a 0 -x {0.44 8.36 -1 ------- null}
h -t 9.608e-05 -s 24 -d 32 -p ping -e 64 -c 0 -i 9 -a 0 -x {0.44 8.36 -1 ------- null}
r -t 9.668e-05 -s 0 -d 16 -p ping -e 64 -c 0 -i 15 -a 0 -x {0.50 14.36 -1 ------- null}
+ -t 9.668e-05 -s 16 -d 24 -p ping -e 64 -c 0 -i 15 -a 0 -x {0.50 14.36 -1 ------- null}
- -t 9.668e-05 -s 16 -d 24 -p ping -e 64 -c 0 -i 15 -a 0 -x {0.50 14.36 -1 ------- null}
h -t 9.668e-05 -s 16 -d 24 -p ping -e 64 -c 0 -i 15 -a 0 -x {0.50 14.36 -1 ------- null}
- -t 9.728e-05 -s 0 -d 16 -p ping -e 64 -c 0 -i 21 -a 0 -x {0.56 20.36 -1 ------- null}
h -t 9.728e-05 -s 0 -d 16 -p ping -e 64 -c 0 -i 21 -a 0 -x {0.56 20.36 -1 ------- null}
r -t 0.0001006 -s 24 -d 17 -p ping -e 64 -c 0 -i 4 -a 0 -x {0.39 3.36 -1 ------- null}
+ -t 0.0001006 -s 17 -d 3 -p ping -e 64 -c 0 -i 4 -a 0 -x {0.39 3.36 -1 ------- null}
- -t 0.0001006 -s 17 -d 3 -p ping -e 64 -c 0 -i 4 -a 0 -x {0.39 3.36 -1 ------- null}
h -t 0.0001006 -s 17 -d 3 -p ping -e 64 -c 0 -i 4 -a 0 -x {0.39 3.36 -1 ------- null}
r -t 0.0001012 -s 16 -d 24 -p ping -e 64 -c 0 -i 10 -a 0 -x {0.45 9.36 -1 ------- null}
+ -t 0.0001012 -s 24 -d 32 -p ping -e 64 -c 0 -i 10 -a 0 -x {0.45 9.36 -1 ------- null}
- -t 0.0001012 -s 24 -d 32 -p ping -e 64 -c 0 -i 10 -a 0 -x {0.45 9.36 -1 ------- null}
h -t 0.0001012 -s 24 -d 32 -p ping -e 64 -c 0 -i 10 -a 0 -x {0.45 9.36 -1 ------- null}
r -t 0.0001018 -s 0 -d 16 -p ping -e 64 -c 0 -i 16 -a 0 -x {0.51 15.36 -1 ------- null}
+ -t 0.0001018 -s 16 -d 24 -p ping -e 64 -c 0 -i 16 -a 0 -x {0.51 15.36 -1 ------- null}
- -t 0.0001018 -s 16 -d 24 -p ping -e 64 -c 0 -i 16 -a 0 -x {0.51 15.36 -1 ------- null}
h -t 0.0001018 -s 16 -d 24 -p ping -e 64 -c 0 -i 16 -a 0 -x {0.51 15.36 -1 ------- null}
- -t 0.0001024 -s 0 -d 16 -p ping -e 64 -c 0 -i 22 -a 0 -x {0.57 21.36 -1 ------- null}
h -t 0.0001024 -s 0 -d 16 -p ping -e 64 -c 0 -i 22 -a 0 -x {0.57 21.36 -1 ------- null}
r -t 0.00010572 -s 24 -d 32 -p ping -e 64 -c 0 -i 5 -a 0 -x {0.40 4.36 -1 ------- null}
+ -t 0.00010572 -s 32 -d 26 -p ping -e 64 -c 0 -i 5 -a 0 -x {0.40 4.36 -1 ------- null}
- -t 0.00010572 -s 32 -d 26 -p ping -e 64 -c 0 -i 5 -a 0 -x {0.40 4.36 -1 ------- null}
h -t 0.00010572 -s 32 -d 26 -p ping -e 64 -c 0 -i 5 -a 0 -x {0.40 4.36 -1 ------- null}
r -t 0.00010632 -s 16 -d 24 -p ping -e 64 -c 0 -i 11 -a 0 -x {0.46 10.36 -1 ------- null}
+ -t 0.00010632 -s 24 -d 32 -p ping -e 64 -c 0 -i 11 -a 0 -x {0.46 10.36 -1 ------- null}
- -t 0.00010632 -s 24 -d 32 -p ping -e 64 -c 0 -i 11 -a 0 -x {0.46 10.36 -1 ------- null}
h -t 0.00010632 -s 24 -d 32 -p ping -e 64 -c 0 -i 11 -a 0 -x {0.46 10.36 -1 ------- null}
r -t 0.00010692 -s 0 -d 16 -p ping -e 64 -c 0 -i 17 -a 0 -x {0.52 16.36 -1 ------- null}
+ -t 0.00010692 -s 16 -d 0 -p ping -e 64 -c 0 -i 38 -a 0 -x {16.36 0.52 -1 ------- null}
- -t 0.00010692 -s 16 -d 0 -p ping -e 64 -c 0 -i 38 -a 0 -x {16.36 0.52 -1 ------- null}
h -t 0.00010692 -s 16 -d 0 -p ping -e 64 -c 0 -i 38 -a 0 -x {16.36 0.52 -1 ------- null}
- -t 0.00010752 -s 0 -d 16 -p ping -e 64 -c 0 -i 23 -a 0 -x {0.58 22.36 -1 ------- null}
h -t 0.00010752 -s 0 -d 16 -p ping -e 64 -c 0 -i 23 -a 0 -x {0.58 22.36 -1 ------- null}
r -t 0.00011084 -s 24 -d 32 -p ping -e 64 -c 0 -i 6 -a 0 -x {0.41 5.36 -1 ------- null}
+ -t 0.00011084 -s 32 -d 26 -p ping -e 64 -c 0 -i 6 -a 0 -x {0.41 5.36 -1 ------- null}
- -t 0.00011084 -s 32 -d 26 -p ping -e 64 -c 0 -i 6 -a 0 -x {0.41 5.36 -1 ------- null}
h -t 0.00011084 -s 32 -d 26 -p ping -e 64 -c 0 -i 6 -a 0 -x {0.41 5.36 -1 ------- null}
r -t 0.00011144 -s 16 -d 24 -p ping -e 64 -c 0 -i 12 -a 0 -x {0.47 11.36 -1 ------- null}
+ -t 0.00011144 -s 24 -d 32 -p ping -e 64 -c 0 -i 12 -a 0 -x {0.47 11.36 -1 ------- null}
- -t 0.00011144 -s 24 -d 32 -p ping -e 64 -c 0 -i 12 -a 0 -x {0.47 11.36 -1 ------- null}
h -t 0.00011144 -s 24 -d 32 -p ping -e 64 -c 0 -i 12 -a 0 -x {0.47 11.36 -1 ------- null}
r -t 0.00011204 -s 0 -d 16 -p ping -e 64 -c 0 -i 18 -a 0 -x {0.53 17.36 -1 ------- null}
+ -t 0.00011204 -s 16 -d 24 -p ping -e 64 -c 0 -i 18 -a 0 -x {0.53 17.36 -1 ------- null}
- -t 0.00011204 -s 16 -d 24 -p ping -e 64 -c 0 -i 18 -a 0 -x {0.53 17.36 -1 ------- null}
h -t 0.00011204 -s 16 -d 24 -p ping -e 64 -c 0 -i 18 -a 0 -x {0.53 17.36 -1 ------- null}
- -t 0.00011264 -s 0 -d 16 -p ping -e 64 -c 0 -i 24 -a 0 -x {0.59 23.36 -1 ------- null}
h -t 0.00011264 -s 0 -d 16 -p ping -e 64 -c 0 -i 24 -a 0 -x {0.59 23.36 -1 ------- null}
r -t 0.00011596 -s 24 -d 32 -p ping -e 64 -c 0 -i 7 -a 0 -x {0.42 6.36 -1 ------- null}
+ -t 0.00011596 -s 32 -d 26 -p ping -e 64 -c 0 -i 7 -a 0 -x {0.42 6.36 -1 ------- null}
- -t 0.00011596 -s 32 -d 26 -p ping -e 64 -c 0 -i 7 -a 0 -x {0.42 6.36 -1 ------- null}
h -t 0.00011596 -s 32 -d 26 -p ping -e 64 -c 0 -i 7 -a 0 -x {0.42 6.36 -1 ------- null}
r -t 0.00011656 -s 16 -d 24 -p ping -e 64 -c 0 -i 13 -a 0 -x {0.48 12.36 -1 ------- null}
+ -t 0.00011656 -s 24 -d 32 -p ping -e 64 -c 0 -i 13 -a 0 -x {0.48 12.36 -1 ------- null}
- -t 0.00011656 -s 24 -d 32 -p ping -e 64 -c 0 -i 13 -a 0 -x {0.48 12.36 -1 ------- null}
h -t 0.00011656 -s 24 -d 32 -p ping -e 64 -c 0 -i 13 -a 0 -x {0.48 12.36 -1 ------- null}
r -t 0.00011716 -s 0 -d 16 -p ping -e 64 -c 0 -i 19 -a 0 -x {0.54 18.36 -1 ------- null}
+ -t 0.00011716 -s 16 -d 24 -p ping -e 64 -c 0 -i 19 -a 0 -x {0.54 18.36 -1 ------- null}
- -t 0.00011716 -s 16 -d 24 -p ping -e 64 -c 0 -i 19 -a 0 -x {0.54 18.36 -1 ------- null}
h -t 0.00011716 -s 16 -d 24 -p ping -e 64 -c 0 -i 19 -a 0 -x {0.54 18.36 -1 ------- null}
- -t 0.00011776 -s 0 -d 16 -p ping -e 64 -c 0 -i 25 -a 0 -x {0.60 24.36 -1 ------- null}
h -t 0.00011776 -s 0 -d 16 -p ping -e 64 -c 0 -i 25 -a 0 -x {0.60 24.36 -1 ------- null}
r -t 0.00012048 -s 16 -d 0 -p ping -e 64 -c 0 -i 37 -a 0 -x {1.36 0.37 -1 ------- null}
r -t 0.00012108 -s 24 -d 32 -p ping -e 64 -c 0 -i 8 -a 0 -x {0.43 7.36 -1 ------- null}
+ -t 0.00012108 -s 32 -d 26 -p ping -e 64 -c 0 -i 8 -a 0 -x {0.43 7.36 -1 ------- null}
- -t 0.00012108 -s 32 -d 26 -p ping -e 64 -c 0 -i 8 -a 0 -x {0.43 7.36 -1 ------- null}
h -t 0.00012108 -s 32 -d 26 -p ping -e 64 -c 0 -i 8 -a 0 -x {0.43 7.36 -1 ------- null}
r -t 0.00012168 -s 16 -d 24 -p ping -e 64 -c 0 -i 14 -a 0 -x {0.49 13.36 -1 ------- null}
+ -t 0.00012168 -s 24 -d 32 -p ping -e 64 -c 0 -i 14 -a 0 -x {0.49 13.36 -1 ------- null}
- -t 0.00012168 -s 24 -d 32 -p ping -e 64 -c 0 -i 14 -a 0 -x {0.49 13.36 -1 ------- null}
h -t 0.00012168 -s 24 -d 32 -p ping -e 64 -c 0 -i 14 -a 0 -x {0.49 13.36 -1 ------- null}
r -t 0.00012228 -s 0 -d 16 -p ping -e 64 -c 0 -i 20 -a 0 -x {0.55 19.36 -1 ------- null}
+ -t 0.00012228 -s 16 -d 24 -p ping -e 64 -c 0 -i 20 -a 0 -x {0.55 19.36 -1 ------- null}
- -t 0.00012228 -s 16 -d 24 -p ping -e 64 -c 0 -i 20 -a 0 -x {0.55 19.36 -1 ------- null}
h -t 0.00012228 -s 16 -d 24 -p ping -e 64 -c 0 -i 20 -a 0 -x {0.55 19.36 -1 ------- null}
- -t 0.00012288 -s 0 -d 16 -p ping -e 64 -c 0 -i 26 -a 0 -x {0.61 25.36 -1 ------- null}
h -t 0.00012288 -s 0 -d 16 -p ping -e 64 -c 0 -i 26 -a 0 -x {0.61 25.36 -1 ------- null}
r -t 0.0001256 -s 17 -d 2 -p ping -e 64 -c 0 -i 3 -a 0 -x {0.38 2.36 -1 ------- null}
+ -t 0.0001256 -s 2 -d 17 -p ping -e 64 -c 0 -i 39 -a 0 -x {2.36 0.38 -1 ------- null}
- -t 0.0001256 -s 2 -d 17 -p ping -e 64 -c 0 -i 39 -a 0 -x {2.36 0.38 -1 ------- null}
h -t 0.0001256 -s 2 -d 17 -p ping -e 64 -c 0 -i 39 -a 0 -x {2.36 0.38 -1 ------- null}
r -t 0.0001262 -s 24 -d 32 -p ping -e 64 -c 0 -i 9 -a 0 -x {0.44 8.36 -1 ------- null}
+ -t 0.0001262 -s 32 -d 28 -p ping -e 64 -c 0 -i 9 -a 0 -x {0.44 8.36 -1 ------- null}
- -t 0.0001262 -s 32 -d 28 -p ping -e 64 -c 0 -i 9 -a 0 -x {0.44 8.36 -1 ------- null}
h -t 0.0001262 -s 32 -d 28 -p ping -e 64 -c 0 -i 9 -a 0 -x {0.44 8.36 -1 ------- null}
r -t 0.0001268 -s 16 -d 24 -p ping -e 64 -c 0 -i 15 -a 0 -x {0.50 14.36 -1 ------- null}
+ -t 0.0001268 -s 24 -d 32 -p ping -e 64 -c 0 -i 15 -a 0 -x {0.50 14.36 -1 ------- null}
- -t 0.0001268 -s 24 -d 32 -p ping -e 64 -c 0 -i 15 -a 0 -x {0.50 14.36 -1 ------- null}
h -t 0.0001268 -s 24 -d 32 -p ping -e 64 -c 0 -i 15 -a 0 -x {0.50 14.36 -1 ------- null}
r -t 0.0001274 -s 0 -d 16 -p ping -e 64 -c 0 -i 21 -a 0 -x {0.56 20.36 -1 ------- null}
+ -t 0.0001274 -s 16 -d 24 -p ping -e 64 -c 0 -i 21 -a 0 -x {0.56 20.36 -1 ------- null}
- -t 0.0001274 -s 16 -d 24 -p ping -e 64 -c 0 -i 21 -a 0 -x {0.56 20.36 -1 ------- null}
h -t 0.0001274 -s 16 -d 24 -p ping -e 64 -c 0 -i 21 -a 0 -x {0.56 20.36 -1 ------- null}
- -t 0.000128 -s 0 -d 16 -p ping -e 64 -c 0 -i 27 -a 0 -x {0.62 26.36 -1 ------- null}
h -t 0.000128 -s 0 -d 16 -p ping -e 64 -c 0 -i 27 -a 0 -x {0.62 26.36 -1 ------- null}
r -t 0.00013072 -s 17 -d 3 -p ping -e 64 -c 0 -i 4 -a 0 -x {0.39 3.36 -1 ------- null}
+ -t 0.00013072 -s 3 -d 17 -p ping -e 64 -c 0 -i 40 -a 0 -x {3.36 0.39 -1 ------- null}
- -t 0.00013072 -s 3 -d 17 -p ping -e 64 -c 0 -i 40 -a 0 -x {3.36 0.39 -1 ------- null}
h -t 0.00013072 -s 3 -d 17 -p ping -e 64 -c 0 -i 40 -a 0 -x {3.36 0.39 -1 ------- null}
r -t 0.00013132 -s 24 -d 32 -p ping -e 64 -c 0 -i 10 -a 0 -x {0.45 9.36 -1 ------- null}
+ -t 0.00013132 -s 32 -d 28 -p ping -e 64 -c 0 -i 10 -a 0 -x {0.45 9.36 -1 ------- null}
- -t 0.00013132 -s 32 -d 28 -p ping -e 64 -c 0 -i 10 -a 0 -x {0.45 9.36 -1 ------- null}
h -t 0.00013132 -s 32 -d 28 -p ping -e 64 -c 0 -i 10 -a 0 -x {0.45 9.36 -1 ------- null}
r -t 0.00013192 -s 16 -d 24 -p ping -e 64 -c 0 -i 16 -a 0 -x {0.51 15.36 -1 ------- null}
+ -t 0.00013192 -s 24 -d 32 -p ping -e 64 -c 0 -i 16 -a 0 -x {0.51 15.36 -1 ------- null}
- -t 0.00013192 -s 24 -d 32 -p ping -e 64 -c 0 -i 16 -a 0 -x {0.51 15.36 -1 ------- null}
h -t 0.00013192 -s 24 -d 32 -p ping -e 64 -c 0 -i 16 -a 0 -x {0.51 15.36 -1 ------- null}
r -t 0.00013252 -s 0 -d 16 -p ping -e 64 -c 0 -i 22 -a 0 -x {0.57 21.36 -1 ------- null}
+ -t 0.00013252 -s 16 -d 24 -p ping -e 64 -c 0 -i 22 -a 0 -x {0.57 21.36 -1 ------- null}
- -t 0.00013252 -s 16 -d 24 -p ping -e 64 -c 0 -i 22 -a 0 -x {0.57 21.36 -1 ------- null}
h -t 0.00013252 -s 16 -d 24 -p ping -e 64 -c 0 -i 22 -a 0 -x {0.57 21.36 -1 ------- null}
- -t 0.00013312 -s 0 -d 16 -p ping -e 64 -c 0 -i 28 -a 0 -x {0.63 27.36 -1 ------- null}
h -t 0.00013312 -s 0 -d 16 -p ping -e 64 -c 0 -i 28 -a 0 -x {0.63 27.36 -1 ------- null}
r -t 0.00013584 -s 32 -d 26 -p ping -e 64 -c 0 -i 5 -a 0 -x {0.40 4.36 -1 ------- null}
+ -t 0.00013584 -s 26 -d 18 -p ping -e 64 -c 0 -i 5 -a 0 -x {0.40 4.36 -1 ------- null}
- -t 0.00013584 -s 26 -d 18 -p ping -e 64 -c 0 -i 5 -a 0 -x {0.40 4.36 -1 ------- null}