V -t * -v 1.0a5 -a 0
A -t * -n 1 -p 0 -o 0x7fffffff -c 30 -a 1
A -t * -h 1 -m 1073741823 -s 0
c -t * -i 1 -n Blue
c -t * -i 2 -n Red
n -t * -a 0 -s 0 -S UP -v circle -c black -i black
n -t * -a 1 -s 1 -S UP -v circle -c black -i black
l -t * -s 0 -d 1 -S UP -r 10000000 -D 0.001 -c black
+ -t 1 -s 0 -d 1 -p tcp -e 40 -c 1 -i 0 -a 1 -x {0.0 1.0 0 ------- null}
- -t 1 -s 0 -d 1 -p tcp -e 40 -c 1 -i 0 -a 1 -x {0.0 1.0 0 ------- null}
h -t 1 -s 0 -d 1 -p tcp -e 40 -c 1 -i 0 -a 1 -x {0.0 1.0 -1 ------- null}
r -t 1.001032 -s 0 -d 1 -p tcp -e 40 -c 1 -i 0 -a 1 -x {0.0 1.0 0 ------- null}
+ -t 1.001032 -s 1 -d 0 -p ack -e 40 -c 1 -i 1 -a 1 -x {1.0 0.0 0 ------- null}
- -t 1.001032 -s 1 -d 0 -p ack -e 40 -c 1 -i 1 -a 1 -x {1.0 0.0 0 ------- null}
h -t 1.001032 -s 1 -d 0 -p ack -e 40 -c 1 -i 1 -a 1 -x {1.0 0.0 -1 ------- null}
r -t 1.002064 -s 1 -d 0 -p ack -e 40 -c 1 -i 1 -a 1 -x {1.0 0.0 0 ------- null}
+ -t 1.002064 -s 0 -d 1 -p tcp -e 1040 -c 1 -i 2 -a 1 -x {0.0 1.0 1 ------- null}
- -t 1.002064 -s 0 -d 1 -p tcp -e 1040 -c 1 -i 2 -a 1 -x {0.0 1.0 1 ------- null}
h -t 1.002064 -s 0 -d 1 -p tcp -e 1040 -c 1 -i 2 -a 1 -x {0.0 1.0 -1 ------- null}
+ -t 1.002064 -s 0 -d 1 -p tcp -e 1040 -c 1 -i 3 -a 1 -x {0.0 1.0 2 ------- null}
- -t 1.002896 -s 0 -d 1 -p tcp -e 1040 -c 1 -i 3 -a 1 -x {0.0 1.0 2 ------- null}
h -t 1.002896 -s 0 -d 1 -p tcp -e 1040 -c 1 -i 3 -a 1 -x {0.0 1.0 -1 ------- null}
r -t 1.003896 -s 0 -d 1 -p tcp -e 1040 -c 1 -i 2 -a 1 -x {0.0 1.0 1 ------- null}
+ -t 1.003896 -s 1 -d 0 -p ack -e 40 -c 1 -i 4 -a 1 -x {1.0 0.0 1 ------- null}
- -t 1.003896 -s 1 -d 0 -p ack -e 40 -c 1 -i 4 -a 1 -x {1.0 0.0 1 ------- null}
h -t 1.003896 -s 1 -d 0 -p ack -e 40 -c 1 -i 4 -a 1 -x {1.0 0.0 -1 ------- null}
r -t 1.004728 -s 0 -d 1 -p tcp -e 1040 -c 1 -i 3 -a 1 -x {0.0 1.0 2 ------- null}
+ -t 1.004728 -s 1 -d 0 -p ack -e 40 -c 1 -i 5 -a 1 -x {1.0 0.0 2 ------- null}
- -t 1.004728 -s 1 -d 0 -p ack -e 40 -c 1 -i 5 -a 1 -x {1.0 0.0 2 ------- null}
h -t 1.004728 -s 1 -d 0 -p ack -e 40 -c 1 -i 5 -a 1 -x {1.0 0.0 -1 ------- null}
r -t 1.004928 -s 1 -d 0 -p ack -e 40 -c 1 -i 4 -a 1 -x {1.0 0.0 1 ------- null}
r -t 1.00576 -s 1 -d 0 -p ack -e 40 -c 1 -i 5 -a 1 -x {1.0 0.0 2 ------- null}
+ -t 1.00576 -s 0 -d 1 -p tcp -e 1040 -c 1 -i 6 -a 1 -x {0.0 1.0 3 ------- null}
- -t 1.00576 -s 0 -d 1 -p tcp -e 1040 -c 1 -i 6 -a 1 -x {0.0 1.0 3 ------- null}
h -t 1.00576 -s 0 -d 1 -p tcp -e 1040 -c 1 -i 6 -a 1 -x {0.0 1.0 -1 ------- null}
r -t 1.007592 -s 0 -d 1 -p tcp -e 1040 -c 1 -i 6 -a 1 -x {0.0 1.0 3 ------- null}
+ -t 1.007592 -s 1 -d 0 -p ack -e 40 -c 1 -i 7 -a 1 -x {1.0 0.0 3 ------- null}
- -t 1.007592 -s 1 -d 0 -p ack -e 40 -c 1 -i 7 -a 1 -x {1.0 0.0 3 ------- null}
h -t 1.007592 -s 1 -d 0 -p ack -e 40 -c 1 -i 7 -a 1 -x {1.0 0.0 -1 ------- null}
r -t 1.008624 -s 1 -d 0 -p ack -e 40 -c 1 -i 7 -a 1 -x {1.0 0.0 3 ------- null}
+ -t 1.008624 -s 0 -d 1 -p tcp -e 1040 -c 1 -i 8 -a 1 -x {0.0 1.0 4 ------- null}
- -t 1.008624 -s 0 -d 1 -p tcp -e 1040 -c 1 -i 8 -a 1 -x {0.0 1.0 4 ------- null}
h -t 1.008624 -s 0 -d 1 -p tcp -e 1040 -c 1 -i 8 -a 1 -x {0.0 1.0 -1 ------- null}
r -t 1.010456 -s 0 -d 1 -p tcp -e 1040 -c 1 -i 8 -a 1 -x {0.0 1.0 4 ------- null}
+ -t 1.010456 -s 1 -d 0 -p ack -e 40 -c 1 -i 9 -a 1 -x {1.0 0.0 4 ------- null}
- -t 1.010456 -s 1 -d 0 -p ack -e 40 -c 1 -i 9 -a 1 -x {1.0 0.0 4 ------- null}
h -t 1.010456 -s 1 -d 0 -p ack -e 40 -c 1 -i 9 -a 1 -x {1.0 0.0 -1 ------- null}
r -t 1.011488 -s 1 -d 0 -p ack -e 40 -c 1 -i 9 -a 1 -x {1.0 0.0 4 ------- null}
+ -t 1.011488 -s 0 -d 1 -p tcp -e 1040 -c 1 -i 10 -a 1 -x {0.0 1.0 5 ------- null}
- -t 1.011488 -s 0 -d 1 -p tcp -e 1040 -c 1 -i 10 -a 1 -x {0.0 1.0 5 ------- null}
h -t 1.011488 -s 0 -d 1 -p tcp -e 1040 -c 1 -i 10 -a 1 -x {0.0 1.0 -1 ------- null}
r -t 1.01332 -s 0 -d 1 -p tcp -e 1040 -c 1 -i 10 -a 1 -x {0.0 1.0 5 ------- null}
+ -t 1.01332 -s 1 -d 0 -p ack -e 40 -c 1 -i 11 -a 1 -x {1.0 0.0 5 ------- null}
- -t 1.01332 -s 1 -d 0 -p ack -e 40 -c 1 -i 11 -a 1 -x {1.0 0.0 5 ------- null}
h -t 1.01332 -s 1 -d 0 -p ack -e 40 -c 1 -i 11 -a 1 -x {1.0 0.0 -1 ------- null}
r -t 1.014352 -s 1 -d 0 -p ack -e 40 -c 1 -i 11 -a 1 -x {1.0 0.0 5 ------- null}
+ -t 1.014352 -s 0 -d 1 -p tcp -e 1040 -c 1 -i 12 -a 1 -x {0.0 1.0 6 ------- null}
- -t 1.014352 -s 0 -d 1 -p tcp -e 1040 -c 1 -i 12 -a 1 -x {0.0 1.0 6 ------- null}
h -t 1.014352 -s 0 -d 1 -p tcp -e 1040 -c 1 -i 12 -a 1 -x {0.0 1.0 -1 ------- null}
r -t 1.016184 -s 0 -d 1 -p tcp -e 1040 -c 1 -i 12 -a 1 -x {0.0 1.0 6 ------- null}
+ -t 1.016184 -s 1 -d 0 -p ack -e 40 -c 1 -i 13 -a 1 -x {1.0 0.0 6 ------- null}
- -t 1.016184 -s 1 -d 0 -p ack -e 40 -c 1 -i 13 -a 1 -x {1.0 0.0 6 ------- null}
h -t 1.016184 -s 1 -d 0 -p ack -e 40 -c 1 -i 13 -a 1 -x {1.0 0.0 -1 ------- null}
r -t 1.017216 -s 1 -d 0 -p ack -e 40 -c 1 -i 13 -a 1 -x {1.0 0.0 6 ------- null}
+ -t 1.017216 -s 0 -d 1 -p tcp -e 1040 -c 1 -i 14 -a 1 -x {0.0 1.0 7 ------- null}
- -t 1.017216 -s 0 -d 1 -p tcp -e 1040 -c 1 -i 14 -a 1 -x {0.0 1.0 7 ------- null}
h -t 1.017216 -s 0 -d 1 -p tcp -e 1040 -c 1 -i 14 -a 1 -x {0.0 1.0 -1 ------- null}
r -t 1.019048 -s 0 -d 1 -p tcp -e 1040 -c 1 -i 14 -a 1 -x {0.0 1.0 7 ------- null}
+ -t 1.019048 -s 1 -d 0 -p ack -e 40 -c 1 -i 15 -a 1 -x {1.0 0.0 7 ------- null}
- -t 1.019048 -s 1 -d 0 -p ack -e 40 -c 1 -i 15 -a 1 -x {1.0 0.0 7 ------- null}
h -t 1.019048 -s 1 -d 0 -p ack -e 40 -c 1 -i 15 -a 1 -x {1.0 0.0 -1 ------- null}
r -t 1.02008 -s 1 -d 0 -p ack -e 40 -c 1 -i 15 -a 1 -x {1.0 0.0 7 ------- null}
+ -t 1.02008 -s 0 -d 1 -p tcp -e 1040 -c 1 -i 16 -a 1 -x {0.0 1.0 8 ------- null}
- -t 1.02008 -s 0 -d 1 -p tcp -e 1040 -c 1 -i 16 -a 1 -x {0.0 1.0 8 ------- null}
h -t 1.02008 -s 0 -d 1 -p tcp -e 1040 -c 1 -i 16 -a 1 -x {0.0 1.0 -1 ------- null}
r -t 1.021912 -s 0 -d 1 -p tcp -e 1040 -c 1 -i 16 -a 1 -x {0.0 1.0 8 ------- null}
+ -t 1.021912 -s 1 -d 0 -p ack -e 40 -c 1 -i 17 -a 1 -x {1.0 0.0 8 ------- null}
- -t 1.021912 -s 1 -d 0 -p ack -e 40 -c 1 -i 17 -a 1 -x {1.0 0.0 8 ------- null}
h -t 1.021912 -s 1 -d 0 -p ack -e 40 -c 1 -i 17 -a 1 -x {1.0 0.0 -1 ------- null}
r -t 1.022944 -s 1 -d 0 -p ack -e 40 -c 1 -i 17 -a 1 -x {1.0 0.0 8 ------- null}
+ -t 1.022944 -s 0 -d 1 -p tcp -e 1040 -c 1 -i 18 -a 1 -x {0.0 1.0 9 ------- null}
- -t 1.022944 -s 0 -d 1 -p tcp -e 1040 -c 1 -i 18 -a 1 -x {0.0 1.0 9 ------- null}
h -t 1.022944 -s 0 -d 1 -p tcp -e 1040 -c 1 -i 18 -a 1 -x {0.0 1.0 -1 ------- null}
r -t 1.024776 -s 0 -d 1 -p tcp -e 1040 -c 1 -i 18 -a 1 -x {0.0 1.0 9 ------- null}
+ -t 1.024776 -s 1 -d 0 -p ack -e 40 -c 1 -i 19 -a 1 -x {1.0 0.0 9 ------- null}
- -t 1.024776 -s 1 -d 0 -p ack -e 40 -c 1 -i 19 -a 1 -x {1.0 0.0 9 ------- null}
h -t 1.024776 -s 1 -d 0 -p ack -e 40 -c 1 -i 19 -a 1 -x {1.0 0.0 -1 ------- null}
r -t 1.025808 -s 1 -d 0 -p ack -e 40 -c 1 -i 19 -a 1 -x {1.0 0.0 9 ------- null}
+ -t 1.025808 -s 0 -d 1 -p tcp -e 1040 -c 1 -i 20 -a 1 -x {0.0 1.0 10 ------- null}
- -t 1.025808 -s 0 -d 1 -p tcp -e 1040 -c 1 -i 20 -a 1 -x {0.0 1.0 10 ------- null}
h -t 1.025808 -s 0 -d 1 -p tcp -e 1040 -c 1 -i 20 -a 1 -x {0.0 1.0 -1 ------- null}
r -t 1.02764 -s 0 -d 1 -p tcp -e 1040 -c 1 -i 20 -a 1 -x {0.0 1.0 10 ------- null}
+ -t 1.02764 -s 1 -d 0 -p ack -e 40 -c 1 -i 21 -a 1 -x {1.0 0.0 10 ------- null}
- -t 1.02764 -s 1 -d 0 -p ack -e 40 -c 1 -i 21 -a 1 -x {1.0 0.0 10 ------- null}
h -t 1.02764 -s 1 -d 0 -p ack -e 40 -c 1 -i 21 -a 1 -x {1.0 0.0 -1 ------- null}
r -t 1.028672 -s 1 -d 0 -p ack -e 40 -c 1 -i 21 -a 1 -x {1.0 0.0 10 ------- null}
+ -t 1.028672 -s 0 -d 1 -p tcp -e 1040 -c 1 -i 22 -a 1 -x {0.0 1.0 11 ------- null}
- -t 1.028672 -s 0 -d 1 -p tcp -e 1040 -c 1 -i 22 -a 1 -x {0.0 1.0 11 ------- null}
h -t 1.028672 -s 0 -d 1 -p tcp -e 1040 -c 1 -i 22 -a 1 -x {0.0 1.0 -1 ------- null}
r -t 1.030504 -s 0 -d 1 -p tcp -e 1040 -c 1 -i 22 -a 1 -x {0.0 1.0 11 ------- null}
+ -t 1.030504 -s 1 -d 0 -p ack -e 40 -c 1 -i 23 -a 1 -x {1.0 0.0 11 ------- null}
- -t 1.030504 -s 1 -d 0 -p ack -e 40 -c 1 -i 23 -a 1 -x {1.0 0.0 11 ------- null}
h -t 1.030504 -s 1 -d 0 -p ack -e 40 -c 1 -i 23 -a 1 -x {1.0 0.0 -1 ------- null}
r -t 1.031536 -s 1 -d 0 -p ack -e 40 -c 1 -i 23 -a 1 -x {1.0 0.0 11 ------- null}
+ -t 1.031536 -s 0 -d 1 -p tcp -e 1040 -c 1 -i 24 -a 1 -x {0.0 1.0 12 ------- null}
- -t 1.031536 -s 0 -d 1 -p tcp -e 1040 -c 1 -i 24 -a 1 -x {0.0 1.0 12 ------- null}
h -t 1.031536 -s 0 -d 1 -p tcp -e 1040 -c 1 -i 24 -a 1 -x {0.0 1.0 -1 ------- null}
r -t 1.033368 -s 0 -d 1 -p tcp -e 1040 -c 1 -i 24 -a 1 -x {0.0 1.0 12 ------- null}
+ -t 1.033368 -s 1 -d 0 -p ack -e 40 -c 1 -i 25 -a 1 -x {1.0 0.0 12 ------- null}
- -t 1.033368 -s 1 -d 0 -p ack -e 40 -c 1 -i 25 -a 1 -x {1.0 0.0 12 ------- null}
h -t 1.033368 -s 1 -d 0 -p ack -e 40 -c 1 -i 25 -a 1 -x {1.0 0.0 -1 ------- null}
r -t 1.0344 -s 1 -d 0 -p ack -e 40 -c 1 -i 25 -a 1 -x {1.0 0.0 12 ------- null}
+ -t 1.0344 -s 0 -d 1 -p tcp -e 1040 -c 1 -i 26 -a 1 -x {0.0 1.0 13 ------- null}
- -t 1.0344 -s 0 -d 1 -p tcp -e 1040 -c 1 -i 26 -a 1 -x {0.0 1.0 13 ------- null}
h -t 1.0344 -s 0 -d 1 -p tcp -e 1040 -c 1 -i 26 -a 1 -x {0.0 1.0 -1 ------- null}
r -t 1.036232 -s 0 -d 1 -p tcp -e 1040 -c 1 -i 26 -a 1 -x {0.0 1.0 13 ------- null}
+ -t 1.036232 -s 1 -d 0 -p ack -e 40 -c 1 -i 27 -a 1 -x {1.0 0.0 13 ------- null}
- -t 1.036232 -s 1 -d 0 -p ack -e 40 -c 1 -i 27 -a 1 -x {1.0 0.0 13 ------- null}
h -t 1.036232 -s 1 -d 0 -p ack -e 40 -c 1 -i 27 -a 1 -x {1.0 0.0 -1 ------- null}
r -t 1.037264 -s 1 -d 0 -p ack -e 40 -c 1 -i 27 -a 1 -x {1.0 0.0 13 ------- null}
+ -t 1.037264 -s 0 -d 1 -p tcp -e 1040 -c 1 -i 28 -a 1 -x {0.0 1.0 14 ------- null}
- -t 1.037264 -s 0 -d 1 -p tcp -e 1040 -c 1 -i 28 -a 1 -x {0.0 1.0 14 ------- null}
h -t 1.037264 -s 0 -d 1 -p tcp -e 1040 -c 1 -i 28 -a 1 -x {0.0 1.0 -1 ------- null}
r -t 1.039096 -s 0 -d 1 -p tcp -e 1040 -c 1 -i 28 -a 1 -x {0.0 1.0 14 ------- null}
+ -t 1.039096 -s 1 -d 0 -p ack -e 40 -c 1 -i 29 -a 1 -x {1.0 0.0 14 ------- null}
- -t 1.039096 -s 1 -d 0 -p ack -e 40 -c 1 -i 29 -a 1 -x {1.0 0.0 14 ------- null}
h -t 1.039096 -s 1 -d 0 -p ack -e 40 -c 1 -i 29 -a 1 -x {1.0 0.0 -1 ------- null}
r -t 1.040128 -s 1 -d 0 -p ack -e 40 -c 1 -i 29 -a 1 -x {1.0 0.0 14 ------- null}
+ -t 1.040128 -s 0 -d 1 -p tcp -e 1040 -c 1 -i 30 -a 1 -x {0.0 1.0 15 ------- null}
- -t 1.040128 -s 0 -d 1 -p tcp -e 1040 -c 1 -i 30 -a 1 -x {0.0 1.0 15 ------- null}
h -t 1.040128 -s 0 -d 1 -p tcp -e 1040 -c 1 -i 30 -a 1 -x {0.0 1.0 -1 ------- null}
r -t 1.04196 -s 0 -d 1 -p tcp -e 1040 -c 1 -i 30 -a 1 -x {0.0 1.0 15 ------- null}
+ -t 1.04196 -s 1 -d 0 -p ack -e 40 -c 1 -i 31 -a 1 -x {1.0 0.0 15 ------- null}
- -t 1.04196 -s 1 -d 0 -p ack -e 40 -c 1 -i 31 -a 1 -x {1.0 0.0 15 ------- null}
h -t 1.04196 -s 1 -d 0 -p ack -e 40 -c 1 -i 31 -a 1 -x {1.0 0.0 -1 ------- null}
r -t 1.042992 -s 1 -d 0 -p ack -e 40 -c 1 -i 31 -a 1 -x {1.0 0.0 15 ------- null}
+ -t 1.042992 -s 0 -d 1 -p tcp -e 1040 -c 1 -i 32 -a 1 -x {0.0 1.0 16 ------- null}
- -t 1.042992 -s 0 -d 1 -p tcp -e 1040 -c 1 -i 32 -a 1 -x {0.0 1.0 16 ------- null}
h -t 1.042992 -s 0 -d 1 -p tcp -e 1040 -c 1 -i 32 -a 1 -x {0.0 1.0 -1 ------- null}
r -t 1.044824 -s 0 -d 1 -p tcp -e 1040 -c 1 -i 32 -a 1 -x {0.0 1.0 16 ------- null}
+ -t 1.044824 -s 1 -d 0 -p ack -e 40 -c 1 -i 33 -a 1 -x {1.0 0.0 16 ------- null}
- -t 1.044824 -s 1 -d 0 -p ack -e 40 -c 1 -i 33 -a 1 -x {1.0 0.0 16 ------- null}
h -t 1.044824 -s 1 -d 0 -p ack -e 40 -c 1 -i 33 -a 1 -x {1.0 0.0 -1 ------- null}
r -t 1.045856 -s 1 -d 0 -p ack -e 40 -c 1 -i 33 -a 1 -x {1.0 0.0 16 ------- null}
+ -t 1.045856 -s 0 -d 1 -p tcp -e 1040 -c 1 -i 34 -a 1 -x {0.0 1.0 17 ------- null}
- -t 1.045856 -s 0 -d 1 -p tcp -e 1040 -c 1 -i 34 -a 1 -x {0.0 1.0 17 ------- null}
h -t 1.045856 -s 0 -d 1 -p tcp -e 1040 -c 1 -i 34 -a 1 -x {0.0 1.0 -1 ------- null}
r -t 1.047688 -s 0 -d 1 -p tcp -e 1040 -c 1 -i 34 -a 1 -x {0.0 1.0 17 ------- null}
+ -t 1.047688 -s 1 -d 0 -p ack -e 40 -c 1 -i 35 -a 1 -x {1.0 0.0 17 ------- null}
- -t 1.047688 -s 1 -d 0 -p ack -e 40 -c 1 -i 35 -a 1 -x {1.0 0.0 17 ------- null}
h -t 1.047688 -s 1 -d 0 -p ack -e 40 -c 1 -i 35 -a 1 -x {1.0 0.0 -1 ------- null}
r -t 1.04872 -s 1 -d 0 -p ack -e 40 -c 1 -i 35 -a 1 -x {1.0 0.0 17 ------- null}
+ -t 1.04872 -s 0 -d 1 -p tcp -e 1040 -c 1 -i 36 -a 1 -x {0.0 1.0 18 ------- null}
- -t 1.04872 -s 0 -d 1 -p tcp -e 1040 -c 1 -i 36 -a 1 -x {0.0 1.0 18 ------- null}
h -t 1.04872 -s 0 -d 1 -p tcp -e 1040 -c 1 -i 36 -a 1 -x {0.0 1.0 -1 ------- null}
r -t 1.050552 -s 0 -d 1 -p tcp -e 1040 -c 1 -i 36 -a 1 -x {0.0 1.0 18 ------- null}
+ -t 1.050552 -s 1 -d 0 -p ack -e 40 -c 1 -i 37 -a 1 -x {1.0 0.0 18 ------- null}
- -t 1.050552 -s 1 -d 0 -p ack -e 40 -c 1 -i 37 -a 1 -x {1.0 0.0 18 ------- null}
h -t 1.050552 -s 1 -d 0 -p ack -e 40 -c 1 -i 37 -a 1 -x {1.0 0.0 -1 ------- null}
r -t 1.051584 -s 1 -d 0 -p ack -e 40 -c 1 -i 37 -a 1 -x {1.0 0.0 18 ------- null}
+ -t 1.051584 -s 0 -d 1 -p tcp -e 1040 -c 1 -i 38 -a 1 -x {0.0 1.0 19 ------- null}
- -t 1.051584 -s 0 -d 1 -p tcp -e 1040 -c 1 -i 38 -a 1 -x {0.0 1.0 19 ------- null}
h -t 1.051584 -s 0 -d 1 -p tcp -e 1040 -c 1 -i 38 -a 1 -x {0.0 1.0 -1 ------- null}
r -t 1.053416 -s 0 -d 1 -p tcp -e 1040 -c 1 -i 38 -a 1 -x {0.0 1.0 19 ------- null}
+ -t 1.053416 -s 1 -d 0 -p ack -e 40 -c 1 -i 39 -a 1 -x {1.0 0.0 19 ------- null}
- -t 1.053416 -s 1 -d 0 -p ack -e 40 -c 1 -i 39 -a 1 -x {1.0 0.0 19 ------- null}
h -t 1.053416 -s 1 -d 0 -p ack -e 40 -c 1 -i 39 -a 1 -x {1.0 0.0 -1 ------- null}
r -t 1.054448 -s 1 -d 0 -p ack -e 40 -c 1 -i 39 -a 1 -x {1.0 0.0 19 ------- null}
+ -t 1.054448 -s 0 -d 1 -p tcp -e 1040 -c 1 -i 40 -a 1 -x {0.0 1.0 20 ------- null}
- -t 1.054448 -s 0 -d 1 -p tcp -e 1040 -c 1 -i 40 -a 1 -x {0.0 1.0 20 ------- null}
h -t 1.054448 -s 0 -d 1 -p tcp -e 1040 -c 1 -i 40 -a 1 -x {0.0 1.0 -1 ------- null}
r -t 1.05628 -s 0 -d 1 -p tcp -e 1040 -c 1 -i 40 -a 1 -x {0.0 1.0 20 ------- null}
+ -t 1.05628 -s 1 -d 0 -p ack -e 40 -c 1 -i 41 -a 1 -x {1.0 0.0 20 ------- null}
- -t 1.05628 -s 1 -d 0 -p ack -e 40 -c 1 -i 41 -a 1 -x {1.0 0.0 20 ------- null}
h -t 1.05628 -s 1 -d 0 -p ack -e 40 -c 1 -i 41 -a 1 -x {1.0 0.0 -1 ------- null}
r -t 1.057312 -s 1 -d 0 -p ack -e 40 -c 1 -i 41 -a 1 -x {1.0 0.0 20 ------- null}
+ -t 1.057312 -s 0 -d 1 -p tcp -e 1040 -c 1 -i 42 -a 1 -x {0.0 1.0 21 ------- null}
- -t 1.057312 -s 0 -d 1 -p tcp -e 1040 -c 1 -i 42 -a 1 -x {0.0 1.0 21 ------- null}
h -t 1.057312 -s 0 -d 1 -p tcp -e 1040 -c 1 -i 42 -a 1 -x {0.0 1.0 -1 ------- null}
r -t 1.059144 -s 0 -d 1 -p tcp -e 1040 -c 1 -i 42 -a 1 -x {0.0 1.0 21 ------- null}
+ -t 1.059144 -s 1 -d 0 -p ack -e 40 -c 1 -i 43 -a 1 -x {1.0 0.0 21 ------- null}
- -t 1.059144 -s 1 -d 0 -p ack -e 40 -c 1 -i 43 -a 1 -x {1.0 0.0 21 ------- null}
h -t 1.059144 -s 1 -d 0 -p ack -e 40 -c 1 -i 43 -a 1 -x {1.0 0.0 -1 ------- null}
r -t 1.060176 -s 1 -d 0 -p ack -e 40 -c 1 -i 43 -a 1 -x {1.0 0.0 21 ------- null}
+ -t 1.060176 -s 0 -d 1 -p tcp -e 1040 -c 1 -i 44 -a 1 -x {0.0 1.0 22 ------- null}
- -t 1.060176 -s 0 -d 1 -p tcp -e 1040 -c 1 -i 44 -a 1 -x {0.0 1.0 22 ------- null}
h -t 1.060176 -s 0 -d 1 -p tcp -e 1040 -c 1 -i 44 -a 1 -x {0.0 1.0 -1 ------- null}
r -t 1.062008 -s 0 -d 1 -p tcp -e 1040 -c 1 -i 44 -a 1 -x {0.0 1.0 22 ------- null}
+ -t 1.062008 -s 1 -d 0 -p ack -e 40 -c 1 -i 45 -a 1 -x {1.0 0.0 22 ------- null}
- -t 1.062008 -s 1 -d 0 -p ack -e 40 -c 1 -i 45 -a 1 -x {1.0 0.0 22 ------- null}
h -t 1.062008 -s 1 -d 0 -p ack -e 40 -c 1 -i 45 -a 1 -x {1.0 0.0 -1 ------- null}
r -t 1.06304 -s 1 -d 0 -p ack -e 40 -c 1 -i 45 -a 1 -x {1.0 0.0 22 ------- null}
+ -t 1.06304 -s 0 -d 1 -p tcp -e 1040 -c 1 -i 46 -a 1 -x {0.0 1.0 23 ------- null}
- -t 1.06304 -s 0 -d 1 -p tcp -e 1040 -c 1 -i 46 -a 1 -x {0.0 1.0 23 ------- null}
h -t 1.06304 -s 0 -d 1 -p tcp -e 1040 -c 1 -i 46 -a 1 -x {0.0 1.0 -1 ------- null}
r -t 1.064872 -s 0 -d 1 -p tcp -e 1040 -c 1 -i 46 -a 1 -x {0.0 1.0 23 ------- null}
+ -t 1.064872 -s 1 -d 0 -p ack -e 40 -c 1 -i 47 -a 1 -x {1.0 0.0 23 ------- null}
- -t 1.064872 -s 1 -d 0 -p ack -e 40 -c 1 -i 47 -a 1 -x {1.0 0.0 23 ------- null}
h -t 1.064872 -s 1 -d 0 -p ack -e 40 -c 1 -i 47 -a 1 -x {1.0 0.0 -1 ------- null}
r -t 1.065904 -s 1 -d 0 -p ack -e 40 -c 1 -i 47 -a 1 -x {1.0 0.0 23 ------- null}
+ -t 1.065904 -s 0 -d 1 -p tcp -e 1040 -c 1 -i 48 -a 1 -x {0.0 1.0 24 ------- null}
- -t 1.065904 -s 0 -d 1 -p tcp -e 1040 -c 1 -i 48 -a 1 -x {0.0 1.0 24 ------- null}
h -t 1.065904 -s 0 -d 1 -p tcp -e 1040 -c 1 -i 48 -a 1 -x {0.0 1.0 -1 ------- null}
r -t 1.067736 -s 0 -d 1 -p tcp -e 1040 -c 1 -i 48 -a 1 -x {0.0 1.0 24 ------- null}
+ -t 1.067736 -s 1 -d 0 -p ack -e 40 -c 1 -i 49 -a 1 -x {1.0 0.0 24 ------- null}
- -t 1.067736 -s 1 -d 0 -p ack -e 40 -c 1 -i 49 -a 1 -x {1.0 0.0 24 ------- null}
h -t 1.067736 -s 1 -d 0 -p ack -e 40 -c 1 -i 49 -a 1 -x {1.0 0.0 -1 ------- null}
r -t 1.068768 -s 1 -d 0 -p ack -e 40 -c 1 -i 49 -a 1 -x {1.0 0.0 24 ------- null}
+ -t 1.068768 -s 0 -d 1 -p tcp -e 1040 -c 1 -i 50 -a 1 -x {0.0 1.0 25 ------- null}
- -t 1.068768 -s 0 -d 1 -p tcp -e 1040 -c 1 -i 50 -a 1 -x {0.0 1.0 25 ------- null}
h -t 1.068768 -s 0 -d 1 -p tcp -e 1040 -c 1 -i 50 -a 1 -x {0.0 1.0 -1 ------- null}
r -t 1.0706 -s 0 -d 1 -p tcp -e 1040 -c 1 -i 50 -a 1 -x {0.0 1.0 25 ------- null}
+ -t 1.0706 -s 1 -d 0 -p ack -e 40 -c 1 -i 51 -a 1 -x {1.0 0.0 25 ------- null}
- -t 1.0706 -s 1 -d 0 -p ack -e 40 -c 1 -i 51 -a 1 -x {1.0 0.0 25 ------- null}
h -t 1.0706 -s 1 -d 0 -p ack -e 40 -c 1 -i 51 -a 1 -x {1.0 0.0 -1 ------- null}
r -t 1.071632 -s 1 -d 0 -p ack -e 40 -c 1 -i 51 -a 1 -x {1.0 0.0 25 ------- null}
+ -t 1.071632 -s 0 -d 1 -p tcp -e 1040 -c 1 -i 52 -a 1 -x {0.0 1.0 26 ------- null}
- -t 1.071632 -s 0 -d 1 -p tcp -e 1040 -c 1 -i 52 -a 1 -x {0.0 1.0 26 ------- null}
h -t 1.071632 -s 0 -d 1 -p tcp -e 1040 -c 1 -i 52 -a 1 -x {0.0 1.0 -1 ------- null}
r -t 1.073464 -s 0 -d 1 -p tcp -e 1040 -c 1 -i 52 -a 1 -x {0.0 1.0 26 ------- null}
+ -t 1.073464 -s 1 -d 0 -p ack -e 40 -c 1 -i 53 -a 1 -x {1.0 0.0 26 ------- null}
- -t 1.073464 -s 1 -d 0 -p ack -e 40 -c 1 -i 53 -a 1 -x {1.0 0.0 26 ------- null}
h -t 1.073464 -s 1 -d 0 -p ack -e 40 -c 1 -i 53 -a 1 -x {1.0 0.0 -1 ------- null}
r -t 1.074496 -s 1 -d 0 -p ack -e 40 -c 1 -i 53 -a 1 -x {1.0 0.0 26 ------- null}
+ -t 1.074496 -s 0 -d 1 -p tcp -e 1040 -c 1 -i 54 -a 1 -x {0.0 1.0 27 ------- null}
- -t 1.074496 -s 0 -d 1 -p tcp -e 1040 -c 1 -i 54 -a 1 -x {0.0 1.0 27 ------- null}
h -t 1.074496 -s 0 -d 1 -p tcp -e 1040 -c 1 -i 54 -a 1 -x {0.0 1.0 -1 ------- null}
r -t 1.076328 -s 0 -d 1 -p tcp -e 1040 -c 1 -i 54 -a 1 -x {0.0 1.0 27 ------- null}
+ -t 1.076328 -s 1 -d 0 -p ack -e 40 -c 1 -i 55 -a 1 -x {1.0 0.0 27 ------- null}
- -t 1.076328 -s 1 -d 0 -p ack -e 40 -c 1 -i 55 -a 1 -x {1.0 0.0 27 ------- null}
h -t 1.076328 -s 1 -d 0 -p ack -e 40 -c 1 -i 55 -a 1 -x {1.0 0.0 -1 ------- null}
r -t 1.07736 -s 1 -d 0 -p ack -e 40 -c 1 -i 55 -a 1 -x {1.0 0.0 27 ------- null}
+ -t 1.07736 -s 0 -d 1 -p tcp -e 1040 -c 1 -i 56 -a 1 -x {0.0 1.0 28 ------- null}
- -t 1.07736 -s 0 -d 1 -p tcp -e 1040 -c 1 -i 56 -a 1 -x {0.0 1.0 28 ------- null}
h -t 1.07736 -s 0 -d 1 -p tcp -e 1040 -c 1 -i 56 -a 1 -x {0.0 1.0 -1 ------- null}
r -t 1.079192 -s 0 -d 1 -p tcp -e 1040 -c 1 -i 56 -a 1 -x {0.0 1.0 28 ------- null}
+ -t 1.079192 -s 1 -d 0 -p ack -e 40 -c 1 -i 57 -a 1 -x {1.0 0.0 28 ------- null}
- -t 1.079192 -s 1 -d 0 -p ack -e 40 -c 1 -i 57 -a 1 -x {1.0 0.0 28 ------- null}
h -t 1.079192 -s 1 -d 0 -p ack -e 40 -c 1 -i 57 -a 1 -x {1.0 0.0 -1 ------- null}
r -t 1.080224 -s 1 -d 0 -p ack -e 40 -c 1 -i 57 -a 1 -x {1.0 0.0 28 ------- null}
+ -t 1.080224 -s 0 -d 1 -p tcp -e 1040 -c 1 -i 58 -a 1 -x {0.0 1.0 29 ------- null}
- -t 1.080224 -s 0 -d 1 -p tcp -e 1040 -c 1 -i 58 -a 1 -x {0.0 1.0 29 ------- null}
h -t 1.080224 -s 0 -d 1 -p tcp -e 1040 -c 1 -i 58 -a 1 -x {0.0 1.0 -1 ------- null}
r -t 1.082056 -s 0 -d 1 -p tcp -e 1040 -c 1 -i 58 -a 1 -x {0.0 1.0 29 ------- null}
+ -t 1.082056 -s 1 -d 0 -p ack -e 40 -c 1 -i 59 -a 1 -x {1.0 0.0 29 ------- null}
- -t 1.082056 -s 1 -d 0 -p ack -e 40 -c 1 -i 59 -a 1 -x {1.0 0.0 29 ------- null}
h -t 1.082056 -s 1 -d 0 -p ack -e 40 -c 1 -i 59 -a 1 -x {1.0 0.0 -1 ------- null}
r -t 1.083088 -s 1 -d 0 -p ack -e 40 -c 1 -i 59 -a 1 -x {1.0 0.0 29 ------- null}
+ -t 1.083088 -s 0 -d 1 -p tcp -e 1040 -c 1 -i 60 -a 1 -x {0.0 1.0 30 ------- null}
- -t 1.083088 -s 0 -d 1 -p tcp -e 1040 -c 1 -i 60 -a 1 -x {0.0 1.0 30 ------- null}
h -t 1.083088 -s 0 -d 1 -p tcp -e 1040 -c 1 -i 60 -a 1 -x {0.0 1.0 -1 ------- null}
r -t 1.08492 -s 0 -d 1 -p tcp -e 1040 -c 1 -i 60 -a 1 -x {0.0 1.0 30 ------- null}
+ -t 1.08492 -s 1 -d 0 -p ack -e 40 -c 1 -i 61 -a 1 -x {1.0 0.0 30 ------- null}
- -t 1.08492 -s 1 -d 0 -p ack -e 40 -c 1 -i 61 -a 1 -x {1.0 0.0 30 ------- null}
h -t 1.08492 -s 1 -d 0 -p ack -e 40 -c 1 -i 61 -a 1 -x {1.0 0.0 -1 ------- null}
r -t 1.085952 -s 1 -d 0 -p ack -e 40 -c 1 -i 61 -a 1 -x {1.0 0.0 30 ------- null}
+ -t 1.085952 -s 0 -d 1 -p tcp -e 1040 -c 1 -i 62 -a 1 -x {0.0 1.0 31 ------- null}
- -t 1.085952 -s 0 -d 1 -p tcp -e 1040 -c 1 -i 62 -a 1 -x {0.0 1.0 31 ------- null}
h -t 1.085952 -s 0 -d 1 -p tcp -e 1040 -c 1 -i 62 -a 1 -x {0.0 1.0 -1 ------- null}
r -t 1.087784 -s 0 -d 1 -p tcp -e 1040 -c 1 -i 62 -a 1 -x {0.0 1.0 31 ------- null}
+ -t 1.087784 -s 1 -d 0 -p ack -e 40 -c 1 -i 63 -a 1 -x {1.0 0.0 31 ------- null}
- -t 1.087784 -s 1 -d 0 -p ack -e 40 -c 1 -i 63 -a 1 -x {1.0 0.0 31 ------- null}
h -t 1.087784 -s 1 -d 0 -p ack -e 40 -c 1 -i 63 -a 1 -x {1.0 0.0 -1 ------- null}
r -t 1.088816 -s 1 -d 0 -p ack -e 40 -c 1 -i 63 -a 1 -x {1.0 0.0 31 ------- null}
+ -t 1.088816 -s 0 -d 1 -p tcp -e 1040 -c 1 -i 64 -a 1 -x {0.0 1.0 32 ------- null}
- -t 1.088816 -s 0 -d 1 -p tcp -e 1040 -c 1 -i 64 -a 1 -x {0.0 1.0 32 ------- null}
h -t 1.088816 -s 0 -d 1 -p tcp -e 1040 -c 1 -i 64 -a 1 -x {0.0 1.0 -1 ------- null}
r -t 1.090648 -s 0 -d 1 -p tcp -e 1040 -c 1 -i 64 -a 1 -x {0.0 1.0 32 ------- null}
+ -t 1.090648 -s 1 -d 0 -p ack -e 40 -c 1 -i 65 -a 1 -x {1.0 0.0 32 ------- null}
- -t 1.090648 -s 1 -d 0 -p ack -e 40 -c 1 -i 65 -a 1 -x {1.0 0.0 32 ------- null}
h -t 1.090648 -s 1 -d 0 -p ack -e 40 -c 1 -i 65 -a 1 -x {1.0 0.0 -1 ------- null}
r -t 1.09168 -s 1 -d 0 -p ack -e 40 -c 1 -i 65 -a 1 -x {1.0 0.0 32 ------- null}
+ -t 1.09168 -s 0 -d 1 -p tcp -e 1040 -c 1 -i 66 -a 1 -x {0.0 1.0 33 ------- null}
- -t 1.09168 -s 0 -d 1 -p tcp -e 1040 -c 1 -i 66 -a 1 -x {0.0 1.0 33 ------- null}
h -t 1.09168 -s 0 -d 1 -p tcp -e 1040 -c 1 -i 66 -a 1 -x {0.0 1.0 -1 ------- null}
r -t 1.093512 -s 0 -d 1 -p tcp -e 1040 -c 1 -i 66 -a 1 -x {0.0 1.0 33 ------- null}
+ -t 1.093512 -s 1 -d 0 -p ack -e 40 -c 1 -i 67 -a 1 -x {1.0 0.0 33 ------- null}
- -t 1.093512 -s 1 -d 0 -p ack -e 40 -c 1 -i 67 -a 1 -x {1.0 0.0 33 ------- null}
h -t 1.093512 -s 1 -d 0 -p ack -e 40 -c 1 -i 67 -a 1 -x {1.0 0.0 -1 ------- null}
r -t 1.094544 -s 1 -d 0 -p ack -e 40 -c 1 -i 67 -a 1 -x {1.0 0.0 33 ------- null}
+ -t 1.094544 -s 0 -d 1 -p tcp -e 1040 -c 1 -i 68 -a 1 -x {0.0 1.0 34 ------- null}
- -t 1.094544 -s 0 -d 1 -p tcp -e 1040 -c 1 -i 68 -a 1 -x {0.0 1.0 34 ------- null}
h -t 1.094544 -s 0 -d 1 -p tcp -e 1040 -c 1 -i 68 -a 1 -x {0.0 1.0 -1 ------- null}
r -t 1.096376 -s 0 -d 1 -p tcp -e 1040 -c 1 -i 68 -a 1 -x {0.0 1.0 34 ------- null}
+ -t 1.096376 -s 1 -d 0 -p ack -e 40 -c 1 -i 69 -a 1 -x {1.0 0.0 34 ------- null}
- -t 1.096376 -s 1 -d 0 -p ack -e 40 -c 1 -i 69 -a 1 -x {1.0 0.0 34 ------- null}
h -t 1.096376 -s 1 -d 0 -p ack -e 40 -c 1 -i 69 -a 1 -x {1.0 0.0 -1 ------- null}
r -t 1.097408 -s 1 -d 0 -p ack -e 40 -c 1 -i 69 -a 1 -x {1.0 0.0 34 ------- null}
+ -t 1.097408 -s 0 -d 1 -p tcp -e 1040 -c 1 -i 70 -a 1 -x {0.0 1.0 35 ------- null}
- -t 1.097408 -s 0 -d 1 -p tcp -e 1040 -c 1 -i 70 -a 1 -x {0.0 1.0 35 ------- null}
h -t 1.097408 -s 0 -d 1 -p tcp -e 1040 -c 1 -i 70 -a 1 -x {0.0 1.0 -1 ------- null}
r -t 1.09924 -s 0 -d 1 -p tcp -e 1040 -c 1 -i 70 -a 1 -x {0.0 1.0 35 ------- null}
+ -t 1.09924 -s 1 -d 0 -p ack -e 40 -c 1 -i 71 -a 1 -x {1.0 0.0 35 ------- null}
- -t 1.09924 -s 1 -d 0 -p ack -e 40 -c 1 -i 71 -a 1 -x {1.0 0.0 35 ------- null}
h -t 1.09924 -s 1 -d 0 -p ack -e 40 -c 1 -i 71 -a 1 -x {1.0 0.0 -1 ------- null}
r -t 1.100272 -s 1 -d 0 -p ack -e 40 -c 1 -i 71 -a 1 -x {1.0 0.0 35 ------- null}
+ -t 1.100272 -s 0 -d 1 -p tcp -e 1040 -c 1 -i 72 -a 1 -x {0.0 1.0 36 ------- null}
- -t 1.100272 -s 0 -d 1 -p tcp -e 1040 -c 1 -i 72 -a 1 -x {0.0 1.0 36 ------- null}
h -t 1.100272 -s 0 -d 1 -p tcp -e 1040 -c 1 -i 72 -a 1 -x {0.0 1.0 -1 ------- null}
r -t 1.102104 -s 0 -d 1 -p tcp -e 1040 -c 1 -i 72 -a 1 -x {0.0 1.0 36 ------- null}
+ -t 1.102104 -s 1 -d 0 -p ack -e 40 -c 1 -i 73 -a 1 -x {1.0 0.0 36 ------- null}
- -t 1.102104 -s 1 -d 0 -p ack -e 40 -c 1 -i 73 -a 1 -x {1.0 0.0 36 ------- null}
h -t 1.102104 -s 1 -d 0 -p ack -e 40 -c 1 -i 73 -a 1 -x {1.0 0.0 -1 ------- null}
r -t 1.103136 -s 1 -d 0 -p ack -e 40 -c 1 -i 73 -a 1 -x {1.0 0.0 36 ------- null}
+ -t 1.103136 -s 0 -d 1 -p tcp -e 1040 -c 1 -i 74 -a 1 -x {0.0 1.0 37 ------- null}
- -t 1.103136 -s 0 -d 1 -p tcp -e 1040 -c 1 -i 74 -a 1 -x {0.0 1.0 37 ------- null}
h -t 1.103136 -s 0 -d 1 -p tcp -e 1040 -c 1 -i 74 -a 1 -x {0.0 1.0 -1 ------- null}
r -t 1.104968 -s 0 -d 1 -p tcp -e 1040 -c 1 -i 74 -a 1 -x {0.0 1.0 37 ------- null}
+ -t 1.104968 -s 1 -d 0 -p ack -e 40 -c 1 -i 75 -a 1 -x {1.0 0.0 37 ------- null}
- -t 1.104968 -s 1 -d 0 -p ack -e 40 -c 1 -i 75 -a 1 -x {1.0 0.0 37 ------- null}
h -t 1.104968 -s 1 -d 0 -p ack -e 40 -c 1 -i 75 -a 1 -x {1.0 0.0 -1 ------- null}
r -t 1.106 -s 1 -d 0 -p ack -e 40 -c 1 -i 75 -a 1 -x {1.0 0.0 37 ------- null}
+ -t 1.106 -s 0 -d 1 -p tcp -e 1040 -c 1 -i 76 -a 1 -x {0.0 1.0 38 ------- null}
- -t 1.106 -s 0 -d 1 -p tcp -e 1040 -c 1 -i 76 -a 1 -x {0.0 1.0 38 ------- null}
h -t 1.106 -s 0 -d 1 -p tcp -e 1040 -c 1 -i 76 -a 1 -x {0.0 1.0 -1 ------- null}
r -t 1.107832 -s 0 -d 1 -p tcp -e 1040 -c 1 -i 76 -a 1 -x {0.0 1.0 38 ------- null}
+ -t 1.107832 -s 1 -d 0 -p ack -e 40 -c 1 -i 77 -a 1 -x {1.0 0.0 38 ------- null}
- -t 1.107832 -s 1 -d 0 -p ack -e 40 -c 1 -i 77 -a 1 -x {1.0 0.0 38 ------- null}
h -t 1.107832 -s 1 -d 0 -p ack -e 40 -c 1 -i 77 -a 1 -x {1.0 0.0 -1 ------- null}
r -t 1.108864 -s 1 -d 0 -p ack -e 40 -c 1 -i 77 -a 1 -x {1.0 0.0 38 ------- null}
+ -t 1.108864 -s 0 -d 1 -p tcp -e 1040 -c 1 -i 78 -a 1 -x {0.0 1.0 39 ------- null}
- -t 1.108864 -s 0 -d 1 -p tcp -e 1040 -c 1 -i 78 -a 1 -x {0.0 1.0 39 ------- null}
h -t 1.108864 -s 0 -d 1 -p tcp -e 1040 -c 1 -i 78 -a 1 -x {0.0 1.0 -1 ------- null}
r -t 1.110696 -s 0 -d 1 -p tcp -e 1040 -c 1 -i 78 -a 1 -x {0.0 1.0 39 ------- null}
+ -t 1.110696 -s 1 -d 0 -p ack -e 40 -c 1 -i 79 -a 1 -x {1.0 0.0 39 ------- null}
- -t 1.110696 -s 1 -d 0 -p ack -e 40 -c 1 -i 79 -a 1 -x {1.0 0.0 39 ------- null}
h -t 1.110696 -s 1 -d 0 -p ack -e 40 -c 1 -i 79 -a 1 -x {1.0 0.0 -1 ------- null}
r -t 1.111728 -s 1 -d 0 -p ack -e 40 -c 1 -i 79 -a 1 -x {1.0 0.0 39 ------- null}
+ -t 1.111728 -s 0 -d 1 -p tcp -e 1040 -c 1 -i 80 -a 1 -x {0.0 1.0 40 ------- null}
- -t 1.111728 -s 0 -d 1 -p tcp -e 1040 -c 1 -i 80 -a 1 -x {0.0 1.0 40 ------- null}
h -t 1.111728 -s 0 -d 1 -p tcp -e 1040 -c 1 -i 80 -a 1 -x {0.0 1.0 -1 ------- null}
r -t 1.11356 -s 0 -d 1 -p tcp -e 1040 -c 1 -i 80 -a 1 -x {0.0 1.0 40 ------- null}
+ -t 1.11356 -s 1 -d 0 -p ack -e 40 -c 1 -i 81 -a 1 -x {1.0 0.0 40 ------- null}
- -t 1.11356 -s 1 -d 0 -p ack -e 40 -c 1 -i 81 -a 1 -x {1.0 0.0 40 ------- null}
h -t 1.11356 -s 1 -d 0 -p ack -e 40 -c 1 -i 81 -a 1 -x {1.0 0.0 -1 ------- null}
r -t 1.114592 -s 1 -d 0 -p ack -e 40 -c 1 -i 81 -a 1 -x {1.0 0.0 40 ------- null}
+ -t 1.114592 -s 0 -d 1 -p tcp -e 1040 -c 1 -i 82 -a 1 -x {0.0 1.0 41 ------- null}
- -t 1.114592 -s 0 -d 1 -p tcp -e 1040 -c 1 -i 82 -a 1 -x {0.0 1.0 41 ------- null}
h -t 1.114592 -s 0 -d 1 -p tcp -e 1040 -c 1 -i 82 -a 1 -x {0.0 1.0 -1 ------- null}
r -t 1.116424 -s 0 -d 1 -p tcp -e 1040 -c 1 -i 82 -a 1 -x {0.0 1.0 41 ------- null}
+ -t 1.116424 -s 1 -d 0 -p ack -e 40 -c 1 -i 83 -a 1 -x {1.0 0.0 41 ------- null}
- -t 1.116424 -s 1 -d 0 -p ack -e 40 -c 1 -i 83 -a 1 -x {1.0 0.0 41 ------- null}
h -t 1.116424 -s 1 -d 0 -p ack -e 40 -c 1 -i 83 -a 1 -x {1.0 0.0 -1 ------- null}
r -t 1.117456 -s 1 -d 0 -p ack -e 40 -c 1 -i 83 -a 1 -x {1.0 0.0 41 ------- null}
+ -t 1.117456 -s 0 -d 1 -p tcp -e 1040 -c 1 -i 84 -a 1 -x {0.0 1.0 42 ------- null}
- -t 1.117456 -s 0 -d 1 -p tcp -e 1040 -c 1 -i 84 -a 1 -x {0.0 1.0 42 ------- null}
h -t 1.117456 -s 0 -d 1 -p tcp -e 1040 -c 1 -i 84 -a 1 -x {0.0 1.0 -1 ------- null}
r -t 1.119288 -s 0 -d 1 -p tcp -e 1040 -c 1 -i 84 -a 1 -x {0.0 1.0 42 ------- null}
+ -t 1.119288 -s 1 -d 0 -p ack -e 40 -c 1 -i 85 -a 1 -x {1.0 0.0 42 ------- null}
- -t 1.119288 -s 1 -d 0 -p ack -e 40 -c 1 -i 85 -a 1 -x {1.0 0.0 42 ------- null}
h -t 1.119288 -s 1 -d 0 -p ack -e 40 -c 1 -i 85 -a 1 -x {1.0 0.0 -1 ------- null}
r -t 1.12032 -s 1 -d 0 -p ack -e 40 -c 1 -i 85 -a 1 -x {1.0 0.0 42 ------- null}
+ -t 1.12032 -s 0 -d 1 -p tcp -e 1040 -c 1 -i 86 -a 1 -x {0.0 1.0 43 ------- null}
- -t 1.12032 -s 0 -d 1 -p tcp -e 1040 -c 1 -i 86 -a 1 -x {0.0 1.0 43 ------- null}
h -t 1.12032 -s 0 -d 1 -p tcp -e 1040 -c 1 -i 86 -a 1 -x {0.0 1.0 -1 ------- null}
r -t 1.122152 -s 0 -d 1 -p tcp -e 1040 -c 1 -i 86 -a 1 -x {0.0 1.0 43 ------- null}
+ -t 1.122152 -s 1 -d 0 -p ack -e 40 -c 1 -i 87 -a 1 -x {1.0 0.0 43 ------- null}
- -t 1.122152 -s 1 -d 0 -p ack -e 40 -c 1 -i 87 -a 1 -x {1.0 0.0 43 ------- null}
h -t 1.122152 -s 1 -d 0 -p ack -e 40 -c 1 -i 87 -a 1 -x {1.0 0.0 -1 ------- null}
r -t 1.123184 -s 1 -d 0 -p ack -e 40 -c 1 -i 87 -a 1 -x {1.0 0.0 43 ------- null}
+ -t 1.123184 -s 0 -d 1 -p tcp -e 1040 -c 1 -i 88 -a 1 -x {0.0 1.0 44 ------- null}
- -t 1.123184 -s 0 -d 1 -p tcp -e 1040 -c 1 -i 88 -a 1 -x {0.0 1.0 44 ------- null}
h -t 1.123184 -s 0 -d 1 -p tcp -e 1040 -c 1 -i 88 -a 1 -x {0.0 1.0 -1 ------- null}
r -t 1.125016 -s 0 -d 1 -p tcp -e 1040 -c 1 -i 88 -a 1 -x {0.0 1.0 44 ------- null}
+ -t 1.125016 -s 1 -d 0 -p ack -e 40 -c 1 -i 89 -a 1 -x {1.0 0.0 44 ------- null}
- -t 1.125016 -s 1 -d 0 -p ack -e 40 -c 1 -i 89 -a 1 -x {1.0 0.0 44 ------- null}
h -t 1.125016 -s 1 -d 0 -p ack -e 40 -c 1 -i 89 -a 1 -x {1.0 0.0 -1 ------- null}
r -t 1.126048 -s 1 -d 0 -p ack -e 40 -c 1 -i 89 -a 1 -x {1.0 0.0 44 ------- null}